
.Version 9.3.0 of ABINIT 
.(MPI version, prepared for a x86_64_darwin18.7.0_gnu8.2 computer) 

.Copyright (C) 1998-2020 ABINIT group . 
 ABINIT comes with ABSOLUTELY NO WARRANTY.
 It is free software, and you are welcome to redistribute it
 under certain conditions (GNU General Public License,
 see ~abinit/COPYING or http://www.gnu.org/copyleft/gpl.txt).

 ABINIT is a project of the Universite Catholique de Louvain,
 Corning Inc. and other collaborators, see ~abinit/doc/developers/contributors.txt .
 Please read https://docs.abinit.org/theory/acknowledgments for suggested
 acknowledgments of the ABINIT effort.
 For more information, see https://www.abinit.org .

.Starting date : Wed 30 Sep 2020.
- ( at 03h44 )
  
- input  file    -> /Users/gmatteo/git_repos/abitutorials/abitutorials/sigeph/flow_diamond/w0/t2/run.abi
- output file    -> /Users/gmatteo/git_repos/abitutorials/abitutorials/sigeph/flow_diamond/w0/t2/run.abo
- root for input  files -> /Users/gmatteo/git_repos/abitutorials/abitutorials/sigeph/flow_diamond/w0/t2/indata/in
- root for output files -> /Users/gmatteo/git_repos/abitutorials/abitutorials/sigeph/flow_diamond/w0/t2/outdata/out


 Symmetries : space group Fd -3 m (#227); Bravais cF (face-center cubic)
================================================================================
 Values of the parameters that define the memory need of the present run
     intxc =       0    ionmov =       0      iscf =      -2    lmnmax =       1
     lnmax =       1     mgfft =      24  mpssoang =       2    mqgrid =    3001
     natom =       2  nloc_mem =       1    nspden =       1   nspinor =       1
    nsppol =       1      nsym =      48    n1xccc =    2501    ntypat =       1
    occopt =       1   xclevel =       1
-    mband =         210        mffmem =           1         mkmem =          15
       mpw =         464          nfft =       13824          nkpt =          29
================================================================================
P This job should need less than                      27.496 Mbytes of memory.
  Rough estimation (10% accuracy) of disk space for files :
_ WF disk file :     43.120 Mbytes ; DEN or POT disk file :      0.107 Mbytes.
================================================================================

--------------------------------------------------------------------------------
------------- Echo of variables that govern the present computation ------------
--------------------------------------------------------------------------------
-
- outvars: echo of selected default values                                      
-   iomode0 =  0 , fftalg0 =312 , wfoptalg0 =  0
-
- outvars: echo of global parameters not present in the input file              
-  max_nthreads =    0
-
 -outvars: echo values of preprocessed input variables --------
-          iomode           1
            acell      1.0000000000E+00  1.0000000000E+00  1.0000000000E+00 Bohr
              amu      1.20110000E+01
     densfor_pred           6
             ecut      2.50000000E+01 Hartree
-          fftalg         312
           irdden           1
             iscf          -2
           istwfk        2    0    0    0    1    0    0    0    0    0
                         0    0    0    0    0    0    0    0    0    0
                         1    0    0    0    0    0    0    0    0
              kpt      0.00000000E+00  0.00000000E+00  0.00000000E+00
                       1.25000000E-01  0.00000000E+00  0.00000000E+00
                       2.50000000E-01  0.00000000E+00  0.00000000E+00
                       3.75000000E-01  0.00000000E+00  0.00000000E+00
                       5.00000000E-01  0.00000000E+00  0.00000000E+00
                       1.25000000E-01  1.25000000E-01  0.00000000E+00
                       2.50000000E-01  1.25000000E-01  0.00000000E+00
                       3.75000000E-01  1.25000000E-01  0.00000000E+00
                       5.00000000E-01  1.25000000E-01  0.00000000E+00
                      -3.75000000E-01  1.25000000E-01  0.00000000E+00
                      -2.50000000E-01  1.25000000E-01  0.00000000E+00
                      -1.25000000E-01  1.25000000E-01  0.00000000E+00
                       2.50000000E-01  2.50000000E-01  0.00000000E+00
                       3.75000000E-01  2.50000000E-01  0.00000000E+00
                       5.00000000E-01  2.50000000E-01  0.00000000E+00
                      -3.75000000E-01  2.50000000E-01  0.00000000E+00
                      -2.50000000E-01  2.50000000E-01  0.00000000E+00
                       3.75000000E-01  3.75000000E-01  0.00000000E+00
                       5.00000000E-01  3.75000000E-01  0.00000000E+00
                      -3.75000000E-01  3.75000000E-01  0.00000000E+00
                       5.00000000E-01  5.00000000E-01  0.00000000E+00
                       3.75000000E-01  2.50000000E-01  1.25000000E-01
                       5.00000000E-01  2.50000000E-01  1.25000000E-01
                      -3.75000000E-01  2.50000000E-01  1.25000000E-01
                       5.00000000E-01  3.75000000E-01  1.25000000E-01
                      -3.75000000E-01  3.75000000E-01  1.25000000E-01
                      -2.50000000E-01  3.75000000E-01  1.25000000E-01
                      -3.75000000E-01  5.00000000E-01  1.25000000E-01
                      -2.50000000E-01  5.00000000E-01  2.50000000E-01
         kptrlatt        8    0    0      0    8    0      0    0    8
          kptrlen      3.79205417E+01
P           mkmem          15
            natom           2
            nband         210
           nbdbuf          10
            ngfft          24      24      24
             nkpt          29
-           npkpt           2
             nsym          48
           ntypat           1
           ortalg          -2
        paral_kgb           1
            rprim      0.0000000000E+00  3.3517340250E+00  3.3517340250E+00
                       3.3517340250E+00  0.0000000000E+00  3.3517340250E+00
                       3.3517340250E+00  3.3517340250E+00  0.0000000000E+00
          spgroup         227
           symrel      1  0  0   0  1  0   0  0  1      -1  0  0   0 -1  0   0  0 -1
                       0 -1  1   0 -1  0   1 -1  0       0  1 -1   0  1  0  -1  1  0
                      -1  0  0  -1  0  1  -1  1  0       1  0  0   1  0 -1   1 -1  0
                       0  1 -1   1  0 -1   0  0 -1       0 -1  1  -1  0  1   0  0  1
                      -1  0  0  -1  1  0  -1  0  1       1  0  0   1 -1  0   1  0 -1
                       0 -1  1   1 -1  0   0 -1  0       0  1 -1  -1  1  0   0  1  0
                       1  0  0   0  0  1   0  1  0      -1  0  0   0  0 -1   0 -1  0
                       0  1 -1   0  0 -1   1  0 -1       0 -1  1   0  0  1  -1  0  1
                      -1  0  1  -1  1  0  -1  0  0       1  0 -1   1 -1  0   1  0  0
                       0 -1  0   1 -1  0   0 -1  1       0  1  0  -1  1  0   0  1 -1
                       1  0 -1   0  0 -1   0  1 -1      -1  0  1   0  0  1   0 -1  1
                       0  1  0   0  0  1   1  0  0       0 -1  0   0  0 -1  -1  0  0
                       1  0 -1   0  1 -1   0  0 -1      -1  0  1   0 -1  1   0  0  1
                       0 -1  0   0 -1  1   1 -1  0       0  1  0   0  1 -1  -1  1  0
                      -1  0  1  -1  0  0  -1  1  0       1  0 -1   1  0  0   1 -1  0
                       0  1  0   1  0  0   0  0  1       0 -1  0  -1  0  0   0  0 -1
                       0  0 -1   0  1 -1   1  0 -1       0  0  1   0 -1  1  -1  0  1
                       1 -1  0   0 -1  1   0 -1  0      -1  1  0   0  1 -1   0  1  0
                       0  0  1   1  0  0   0  1  0       0  0 -1  -1  0  0   0 -1  0
                      -1  1  0  -1  0  0  -1  0  1       1 -1  0   1  0  0   1  0 -1
                       0  0  1   0  1  0   1  0  0       0  0 -1   0 -1  0  -1  0  0
                       1 -1  0   0 -1  0   0 -1  1      -1  1  0   0  1  0   0  1 -1
                       0  0 -1   1  0 -1   0  1 -1       0  0  1  -1  0  1   0 -1  1
                      -1  1  0  -1  0  1  -1  0  0       1 -1  0   1  0 -1   1  0  0
            tnons      0.0000000  0.0000000  0.0000000     0.2500000  0.2500000  0.2500000
                       0.0000000  0.0000000  0.0000000     0.2500000  0.2500000  0.2500000
                       0.0000000  0.0000000  0.0000000     0.2500000  0.2500000  0.2500000
                       0.0000000  0.0000000  0.0000000     0.2500000  0.2500000  0.2500000
                       0.0000000  0.0000000  0.0000000     0.2500000  0.2500000  0.2500000
                       0.0000000  0.0000000  0.0000000     0.2500000  0.2500000  0.2500000
                       0.0000000  0.0000000  0.0000000     0.2500000  0.2500000  0.2500000
                       0.0000000  0.0000000  0.0000000     0.2500000  0.2500000  0.2500000
                       0.0000000  0.0000000  0.0000000     0.2500000  0.2500000  0.2500000
                       0.0000000  0.0000000  0.0000000     0.2500000  0.2500000  0.2500000
                       0.0000000  0.0000000  0.0000000     0.2500000  0.2500000  0.2500000
                       0.0000000  0.0000000  0.0000000     0.2500000  0.2500000  0.2500000
                       0.0000000  0.0000000  0.0000000     0.2500000  0.2500000  0.2500000
                       0.0000000  0.0000000  0.0000000     0.2500000  0.2500000  0.2500000
                       0.0000000  0.0000000  0.0000000     0.2500000  0.2500000  0.2500000
                       0.0000000  0.0000000  0.0000000     0.2500000  0.2500000  0.2500000
                       0.0000000  0.0000000  0.0000000     0.2500000  0.2500000  0.2500000
                       0.0000000  0.0000000  0.0000000     0.2500000  0.2500000  0.2500000
                       0.0000000  0.0000000  0.0000000     0.2500000  0.2500000  0.2500000
                       0.0000000  0.0000000  0.0000000     0.2500000  0.2500000  0.2500000
                       0.0000000  0.0000000  0.0000000     0.2500000  0.2500000  0.2500000
                       0.0000000  0.0000000  0.0000000     0.2500000  0.2500000  0.2500000
                       0.0000000  0.0000000  0.0000000     0.2500000  0.2500000  0.2500000
                       0.0000000  0.0000000  0.0000000     0.2500000  0.2500000  0.2500000
           tolwfr      1.00000000E-16
            typat      1  1
         wfoptalg         114
              wtk        0.00195    0.01563    0.01563    0.01563    0.00781    0.01172
                         0.04688    0.04688    0.04688    0.04688    0.04688    0.02344
                         0.01172    0.04688    0.04688    0.04688    0.02344    0.01172
                         0.04688    0.02344    0.00586    0.04688    0.09375    0.04688
                         0.04688    0.09375    0.04688    0.02344    0.01172
           xangst      0.0000000000E+00  0.0000000000E+00  0.0000000000E+00
                       8.8683062764E-01  8.8683062764E-01  8.8683062764E-01
            xcart      0.0000000000E+00  0.0000000000E+00  0.0000000000E+00
                       1.6758670125E+00  1.6758670125E+00  1.6758670125E+00
             xred      0.0000000000E+00  0.0000000000E+00  0.0000000000E+00
                       2.5000000000E-01  2.5000000000E-01  2.5000000000E-01
            znucl        6.00000

================================================================================

 chkinp: Checking input parameters for consistency.

================================================================================
== DATASET  1 ==================================================================
-   mpi_nproc: 2, omp_nthreads: -1 (-1 if OMP is not activated)


--- !DatasetInfo
iteration_state: {dtset: 1, }
dimensions: {natom: 2, nkpt: 29, mband: 210, nsppol: 1, nspinor: 1, nspden: 1, mpw: 464, }
cutoff_energies: {ecut:  25.0, pawecutdg:  -1.0, }
electrons: {nelect:   8.00000000E+00, charge:   0.00000000E+00, occopt:   1.00000000E+00, tsmear:   1.00000000E-02, }
meta: {optdriver: 0, ionmov: 0, optcell: 0, iscf: -2, paral_kgb: 1, }
...

 Exchange-correlation functional for the present dataset will be:
  LDA: new Teter (4/93) with spin-polarized option - ixc=1
 Citation for XC functional:
  S. Goedecker, M. Teter, J. Huetter, PRB 54, 1703 (1996)

 Real(R)+Recip(G) space primitive vectors, cartesian coordinates (Bohr,Bohr^-1):
 R(1)=  0.0000000  3.3517340  3.3517340  G(1)= -0.1491765  0.1491765  0.1491765
 R(2)=  3.3517340  0.0000000  3.3517340  G(2)=  0.1491765 -0.1491765  0.1491765
 R(3)=  3.3517340  3.3517340  0.0000000  G(3)=  0.1491765  0.1491765 -0.1491765
 Unit cell volume ucvol=  7.5307571E+01 bohr^3
 Angles (23,13,12)=  6.00000000E+01  6.00000000E+01  6.00000000E+01 degrees

 getcut: wavevector=  0.0000  0.0000  0.0000  ngfft=  24  24  24
         ecut(hartree)=     25.000   => boxcut(ratio)=   2.24953

 getcut : COMMENT -
  Note that boxcut > 2.2 ; recall that boxcut=Gcut(box)/Gcut(sphere) = 2
  is sufficient for exact treatment of convolution.
  Such a large boxcut is a waste : you could raise ecut
  e.g. ecut=   31.627375 Hartrees makes boxcut=2


--- Pseudopotential description ------------------------------------------------
- pspini: atom type   1  psp file is /Users/gmatteo/git_repos/abitutorials/abitutorials/sigeph/6c.pspnc
- pspatm: opening atomic psp file    /Users/gmatteo/git_repos/abitutorials/abitutorials/sigeph/6c.pspnc
-  Troullier-Martins psp for element  C         Thu Oct 27 17:29:33 EDT 1994
-  6.00000   4.00000    940714                znucl, zion, pspdat
    1    1    1    1      2001   0.00000      pspcod,pspxc,lmax,lloc,mmax,r2well
    0  10.372  24.987    1   1.4850707        l,e99.0,e99.9,nproj,rcpsp
   0.00000000   0.00000000   0.00000000   0.00000000     rms, ekb1, ekb2, epsatm
    1  15.431  21.987    0   1.4850707        l,e99.0,e99.9,nproj,rcpsp
   0.00000000   0.00000000   0.00000000   0.00000000     rms, ekb1, ekb2, epsatm
    0.83985002509544    0.99012430797080    0.51184907750884   rchrg,fchrg,qchrg
  pspatm : epsatm=    0.92590353
         --- l  ekb(1:nproj) -->
             0    4.921466
 pspatm: atomic psp has been read  and splines computed

--------------------------------------------------------------------------------


================================================================================
 prteigrs : about to open file /Users/gmatteo/git_repos/abitutorials/abitutorials/sigeph/flow_diamond/w0/t2/outdata/out_EIG
 Non-SCF case, kpt    1 (  0.00000  0.00000  0.00000), residuals and eigenvalues=
  2.13E-31  7.55E-30  7.00E-32  3.28E-30  5.37E-31  1.68E-32  4.32E-32  7.60E-31
  8.37E-31  4.27E-31  4.06E-31  2.09E-30  3.87E-30  3.10E-30  4.80E-30  1.13E-30
  1.13E-29  1.05E-29  3.43E-31  2.50E-30  1.09E-30  2.29E-30  2.09E-30  1.94E-30
  2.54E-31  1.54E-30  4.79E-30  2.42E-30  2.29E-30  1.45E-30  9.04E-31  9.69E-31
  1.00E-30  6.59E-31  5.41E-31  4.06E-31  3.32E-31  5.29E-31  8.24E-31  8.34E-31
  1.03E-30  8.10E-31  2.36E-31  1.59E-31  6.43E-31  4.14E-31  1.23E-30  6.35E-31
  7.55E-31  3.34E-31  2.11E-30  7.26E-31  9.84E-31  1.56E-30  1.09E-30  7.79E-31
  2.20E-30  5.10E-31  9.92E-31  4.41E-31  8.02E-31  5.65E-31  2.45E-31  7.98E-31
  5.49E-31  1.24E-30  3.56E-31  1.59E-30  6.85E-31  5.84E-31  3.93E-31  6.49E-31
  4.39E-31  6.83E-31  6.78E-31  4.18E-31  3.95E-31  4.83E-31  3.58E-31  6.41E-31
  3.55E-31  6.81E-31  5.72E-31  3.98E-31  4.64E-31  3.42E-31  3.36E-31  3.89E-31
  1.39E-31  3.94E-31  1.22E-31  3.30E-31  7.07E-31  2.36E-31  3.42E-31  4.33E-31
  4.00E-31  3.39E-31  5.22E-31  2.34E-31  3.10E-31  7.17E-31  3.47E-31  7.13E-31
  3.08E-31  2.02E-31  7.07E-31  3.58E-31  2.01E-31  4.44E-31  2.89E-31  2.33E-31
  3.81E-31  1.16E-30  9.47E-31  7.28E-31  1.03E-30  5.68E-31  1.44E-31  4.06E-31
  3.96E-31  6.62E-31  5.56E-31  3.14E-31  4.84E-31  1.25E-30  5.16E-31  3.62E-31
  2.77E-31  4.15E-31  6.43E-31  3.65E-31  1.33E-30  4.11E-31  9.90E-31  5.20E-31
  4.86E-31  4.19E-31  4.24E-31  1.03E-30  8.00E-31  4.84E-31  6.87E-31  5.28E-31
  7.52E-31  4.59E-31  5.73E-31  3.19E-31  3.32E-31  4.26E-31  8.63E-31  5.53E-31
  2.93E-31  1.03E-30  1.61E-30  8.10E-31  4.00E-31  4.06E-31  4.33E-31  3.36E-31
  4.61E-31  2.71E-31  5.22E-31  5.11E-31  3.56E-31  2.40E-31  3.40E-31  2.05E-31
  5.27E-31  1.17E-30  2.16E-30  1.75E-30  2.50E-30  4.70E-31  4.87E-31  6.86E-31
  6.05E-31  2.39E-30  1.01E-30  7.66E-31  1.16E-30  8.72E-30  7.13E-30  3.56E-30
  1.38E-29  9.42E-30  1.06E-28  1.38E-29  7.91E-25  5.12E-24  1.40E-23  2.89E-25
  1.95E-24  3.67E-24  2.06E-18  1.98E-18  3.21E-18  1.30E-17  8.77E-18  1.51E-17
  9.42E-17  4.25E-18  2.70E-15  1.24E-15  1.73E-14  3.13E-08  5.87E-08  3.15E-08
  1.67E-07  1.75E-06
 -3.2325E-01  4.6831E-01  4.6831E-01  4.6831E-01  6.7474E-01  6.7474E-01
  6.7474E-01  9.8020E-01  1.1752E+00  1.4593E+00  1.4593E+00  1.4829E+00
  1.4829E+00  1.4829E+00  1.7395E+00  2.2475E+00  2.2475E+00  2.2475E+00
  2.9547E+00  2.9547E+00  2.9547E+00  3.1136E+00  3.1136E+00  3.2522E+00
  3.2522E+00  3.2522E+00  3.5083E+00  3.5083E+00  3.5083E+00  3.5876E+00
  4.0969E+00  4.0969E+00  4.0969E+00  4.2959E+00  4.2959E+00  4.3186E+00
  4.3186E+00  4.3667E+00  4.3667E+00  4.3667E+00  4.5319E+00  4.5319E+00
  4.5319E+00  4.5844E+00  4.5844E+00  4.5844E+00  4.5888E+00  4.6217E+00
  4.6217E+00  4.6217E+00  4.7355E+00  4.9457E+00  4.9457E+00  4.9457E+00
  4.9790E+00  4.9790E+00  4.9790E+00  5.0660E+00  5.1459E+00  6.5000E+00
  6.5000E+00  6.5000E+00  6.5213E+00  6.5213E+00  6.7018E+00  6.9787E+00
  6.9787E+00  6.9787E+00  7.1927E+00  7.1927E+00  7.1927E+00  7.3382E+00
  7.4530E+00  7.4530E+00  7.6104E+00  7.7155E+00  7.7155E+00  7.7155E+00
  7.7225E+00  7.7225E+00  7.7225E+00  7.7357E+00  7.7357E+00  7.7357E+00
  7.9601E+00  7.9601E+00  7.9682E+00  7.9682E+00  7.9682E+00  8.2517E+00
  8.2517E+00  8.2764E+00  8.2764E+00  8.2764E+00  8.3531E+00  8.4920E+00
  8.4920E+00  8.4920E+00  8.4980E+00  8.4980E+00  8.4980E+00  8.5198E+00
  8.5198E+00  8.5198E+00  8.5220E+00  8.5220E+00  8.5220E+00  8.6130E+00
  8.6229E+00  8.6229E+00  8.6229E+00  8.6277E+00  8.6277E+00  9.5692E+00
  9.5890E+00  9.5890E+00  9.5890E+00  9.6406E+00  9.6406E+00  9.6406E+00
  9.8045E+00  9.9054E+00  9.9054E+00  1.0074E+01  1.0074E+01  1.0074E+01
  1.0141E+01  1.0141E+01  1.0141E+01  1.0214E+01  1.0214E+01  1.0214E+01
  1.0239E+01  1.0239E+01  1.0239E+01  1.0278E+01  1.0278E+01  1.1202E+01
  1.1210E+01  1.1210E+01  1.1219E+01  1.1219E+01  1.1219E+01  1.1283E+01
  1.1283E+01  1.1294E+01  1.1294E+01  1.1294E+01  1.1312E+01  1.1381E+01
  1.1381E+01  1.1381E+01  1.1411E+01  1.1411E+01  1.1411E+01  1.1429E+01
  1.1500E+01  1.1560E+01  1.1560E+01  1.1560E+01  1.1561E+01  1.1561E+01
  1.1561E+01  1.1571E+01  1.1571E+01  1.1571E+01  1.1574E+01  1.1574E+01
  1.1574E+01  1.3352E+01  1.3352E+01  1.3352E+01  1.3361E+01  1.3361E+01
  1.3361E+01  1.3381E+01  1.3381E+01  1.3381E+01  1.3385E+01  1.3406E+01
  1.3406E+01  1.4139E+01  1.4164E+01  1.4164E+01  1.4164E+01  1.4222E+01
  1.4222E+01  1.4222E+01  1.4480E+01  1.4480E+01  1.4480E+01  1.4482E+01
  1.4482E+01  1.4487E+01  1.4705E+01  1.4705E+01  1.4705E+01  1.4730E+01
  1.4730E+01  1.4730E+01  1.4762E+01  1.4762E+01  1.4796E+01  1.4796E+01
  1.4796E+01  1.4988E+01  1.4989E+01  1.4991E+01  1.4991E+01  1.5014E+01
  prteigrs : nnsclo,ikpt=   30    1 max resid (incl. the buffer)=  1.75044E-06
 prteigrs : prtvol=0 or 1, do not print more k-points.

  prteigrs : nnsclo,ikpt=   30    2 max resid (incl. the buffer)=  5.04090E-07
  prteigrs : nnsclo,ikpt=   30    3 max resid (incl. the buffer)=  4.29178E-07
  prteigrs : nnsclo,ikpt=   30    4 max resid (incl. the buffer)=  2.15631E-06
  prteigrs : nnsclo,ikpt=   30    5 max resid (incl. the buffer)=  2.34171E-14
  prteigrs : nnsclo,ikpt=   30    6 max resid (incl. the buffer)=  2.90736E-06
  prteigrs : nnsclo,ikpt=   30    7 max resid (incl. the buffer)=  5.28258E-07
  prteigrs : nnsclo,ikpt=   30    8 max resid (incl. the buffer)=  4.17424E-07
  prteigrs : nnsclo,ikpt=   30    9 max resid (incl. the buffer)=  1.80088E-07
  prteigrs : nnsclo,ikpt=   30   10 max resid (incl. the buffer)=  7.56056E-07
  prteigrs : nnsclo,ikpt=   30   11 max resid (incl. the buffer)=  3.54878E-07
  prteigrs : nnsclo,ikpt=   30   12 max resid (incl. the buffer)=  9.86633E-10
  prteigrs : nnsclo,ikpt=   30   13 max resid (incl. the buffer)=  2.02012E-06
  prteigrs : nnsclo,ikpt=   30   14 max resid (incl. the buffer)=  9.53969E-07
  prteigrs : nnsclo,ikpt=   30   15 max resid (incl. the buffer)=  2.33251E-07
  prteigrs : nnsclo,ikpt=   30   16 max resid (incl. the buffer)=  2.80870E-06
  prteigrs : nnsclo,ikpt=   30   17 max resid (incl. the buffer)=  1.17310E-10
  prteigrs : nnsclo,ikpt=   30   18 max resid (incl. the buffer)=  2.36011E-05
  prteigrs : nnsclo,ikpt=   30   19 max resid (incl. the buffer)=  1.66660E-06
  prteigrs : nnsclo,ikpt=   30   20 max resid (incl. the buffer)=  2.82746E-07
  prteigrs : nnsclo,ikpt=   30   21 max resid (incl. the buffer)=  7.96711E-06
  prteigrs : nnsclo,ikpt=   30   22 max resid (incl. the buffer)=  4.34354E-08
  prteigrs : nnsclo,ikpt=   30   23 max resid (incl. the buffer)=  8.26448E-09
  prteigrs : nnsclo,ikpt=   30   24 max resid (incl. the buffer)=  5.27716E-07
  prteigrs : nnsclo,ikpt=   30   25 max resid (incl. the buffer)=  3.44780E-07
  prteigrs : nnsclo,ikpt=   30   26 max resid (incl. the buffer)=  5.22603E-07
  prteigrs : nnsclo,ikpt=   30   27 max resid (incl. the buffer)=  1.04188E-06
  prteigrs : nnsclo,ikpt=   30   28 max resid (incl. the buffer)=  3.42124E-06
  prteigrs : nnsclo,ikpt=   30   29 max resid (incl. the buffer)=  8.17970E-06


--- !ResultsGS
iteration_state: {dtset: 1, }
comment   : Summary of ground state results
lattice_vectors:
- [  0.0000000,   3.3517340,   3.3517340, ]
- [  3.3517340,   0.0000000,   3.3517340, ]
- [  3.3517340,   3.3517340,   0.0000000, ]
lattice_lengths: [   4.74007,    4.74007,    4.74007, ]
lattice_angles: [ 60.000,  60.000,  60.000, ] # degrees, (23, 13, 12)
lattice_volume:   7.5307571E+01
convergence: {deltae:  0.000E+00, res2:  0.000E+00, residm:  7.912E-17, diffor:  0.000E+00, }
etotal    :  -1.20746517E+01
entropy   :   0.00000000E+00
fermie    :   4.68313990E-01
cartesian_stress_tensor: null
pressure_GPa: null
xred      :
- [  0.0000E+00,   0.0000E+00,   0.0000E+00,  C]
- [  2.5000E-01,   2.5000E-01,   2.5000E-01,  C]
cartesian_forces: null
force_length_stats: {min: null, max: null, mean: null, }
...

 Integrated electronic density in atomic spheres:
 ------------------------------------------------
 Atom  Sphere_radius  Integrated_density
    1        2.00000          4.70212506
    2        2.00000          4.70212506
================================================================================

 ----iterations are completed or convergence reached----

 Mean square residual over all n,k,spin=   23.829E-20; max=  79.116E-18
 reduced coordinates (array xred) for    2 atoms
       0.000000000000      0.000000000000      0.000000000000
       0.250000000000      0.250000000000      0.250000000000

 cartesian coordinates (angstrom) at end:
    1      0.00000000000000     0.00000000000000     0.00000000000000
    2      0.88683062764281     0.88683062764281     0.88683062764281
 length scales=  1.000000000000  1.000000000000  1.000000000000 bohr
              =  0.529177208590  0.529177208590  0.529177208590 angstroms
 prteigrs : about to open file /Users/gmatteo/git_repos/abitutorials/abitutorials/sigeph/flow_diamond/w0/t2/outdata/out_EIG
 Eigenvalues (hartree) for nkpt=  29  k points:
 kpt#   1, nband=210, wtk=  0.00195, kpt=  0.0000  0.0000  0.0000 (reduced coord)
  -0.32325    0.46831    0.46831    0.46831    0.67474    0.67474    0.67474    0.98020
   1.17519    1.45931    1.45931    1.48286    1.48286    1.48286    1.73950    2.24751
   2.24751    2.24751    2.95470    2.95470    2.95470    3.11356    3.11356    3.25215
   3.25215    3.25215    3.50830    3.50830    3.50830    3.58756    4.09687    4.09687
   4.09687    4.29589    4.29589    4.31863    4.31863    4.36670    4.36670    4.36670
   4.53192    4.53192    4.53192    4.58438    4.58438    4.58438    4.58879    4.62166
   4.62166    4.62166    4.73546    4.94567    4.94567    4.94567    4.97898    4.97898
   4.97898    5.06599    5.14585    6.49997    6.49997    6.49997    6.52128    6.52128
   6.70178    6.97869    6.97869    6.97869    7.19275    7.19275    7.19275    7.33815
   7.45302    7.45302    7.61040    7.71554    7.71554    7.71554    7.72248    7.72248
   7.72248    7.73568    7.73568    7.73568    7.96010    7.96010    7.96817    7.96817
   7.96817    8.25174    8.25174    8.27637    8.27637    8.27637    8.35306    8.49197
   8.49197    8.49197    8.49800    8.49800    8.49800    8.51985    8.51985    8.51985
   8.52202    8.52202    8.52202    8.61299    8.62289    8.62289    8.62289    8.62769
   8.62769    9.56917    9.58905    9.58905    9.58905    9.64059    9.64059    9.64059
   9.80451    9.90544    9.90544   10.07363   10.07363   10.07363   10.14073   10.14073
  10.14073   10.21398   10.21398   10.21398   10.23881   10.23881   10.23881   10.27796
  10.27796   11.20168   11.21022   11.21022   11.21899   11.21899   11.21899   11.28259
  11.28259   11.29423   11.29423   11.29423   11.31159   11.38072   11.38072   11.38072
  11.41135   11.41135   11.41135   11.42884   11.50006   11.56044   11.56044   11.56044
  11.56141   11.56141   11.56141   11.57110   11.57110   11.57110   11.57399   11.57399
  11.57399   13.35169   13.35169   13.35169   13.36070   13.36070   13.36070   13.38072
  13.38072   13.38072   13.38493   13.40647   13.40647   14.13930   14.16401   14.16401
  14.16401   14.22198   14.22198   14.22198   14.47955   14.47955   14.47955   14.48207
  14.48207   14.48737   14.70464   14.70464   14.70464   14.72999   14.72999   14.72999
  14.76233   14.76233   14.79576   14.79576   14.79576   14.98814   14.98914   14.99067
  14.99116   15.01436
 prteigrs : prtvol=0 or 1, do not print more k-points.


== END DATASET(S) ==============================================================
================================================================================
  
 -outvars: echo values of variables after computation  --------
-          iomode           1
            acell      1.0000000000E+00  1.0000000000E+00  1.0000000000E+00 Bohr
              amu      1.20110000E+01
     densfor_pred           6
             ecut      2.50000000E+01 Hartree
-          fftalg         312
           irdden           1
             iscf          -2
           istwfk        2    0    0    0    1    0    0    0    0    0
                         0    0    0    0    0    0    0    0    0    0
                         1    0    0    0    0    0    0    0    0
              kpt      0.00000000E+00  0.00000000E+00  0.00000000E+00
                       1.25000000E-01  0.00000000E+00  0.00000000E+00
                       2.50000000E-01  0.00000000E+00  0.00000000E+00
                       3.75000000E-01  0.00000000E+00  0.00000000E+00
                       5.00000000E-01  0.00000000E+00  0.00000000E+00
                       1.25000000E-01  1.25000000E-01  0.00000000E+00
                       2.50000000E-01  1.25000000E-01  0.00000000E+00
                       3.75000000E-01  1.25000000E-01  0.00000000E+00
                       5.00000000E-01  1.25000000E-01  0.00000000E+00
                      -3.75000000E-01  1.25000000E-01  0.00000000E+00
                      -2.50000000E-01  1.25000000E-01  0.00000000E+00
                      -1.25000000E-01  1.25000000E-01  0.00000000E+00
                       2.50000000E-01  2.50000000E-01  0.00000000E+00
                       3.75000000E-01  2.50000000E-01  0.00000000E+00
                       5.00000000E-01  2.50000000E-01  0.00000000E+00
                      -3.75000000E-01  2.50000000E-01  0.00000000E+00
                      -2.50000000E-01  2.50000000E-01  0.00000000E+00
                       3.75000000E-01  3.75000000E-01  0.00000000E+00
                       5.00000000E-01  3.75000000E-01  0.00000000E+00
                      -3.75000000E-01  3.75000000E-01  0.00000000E+00
                       5.00000000E-01  5.00000000E-01  0.00000000E+00
                       3.75000000E-01  2.50000000E-01  1.25000000E-01
                       5.00000000E-01  2.50000000E-01  1.25000000E-01
                      -3.75000000E-01  2.50000000E-01  1.25000000E-01
                       5.00000000E-01  3.75000000E-01  1.25000000E-01
                      -3.75000000E-01  3.75000000E-01  1.25000000E-01
                      -2.50000000E-01  3.75000000E-01  1.25000000E-01
                      -3.75000000E-01  5.00000000E-01  1.25000000E-01
                      -2.50000000E-01  5.00000000E-01  2.50000000E-01
         kptrlatt        8    0    0      0    8    0      0    0    8
          kptrlen      3.79205417E+01
P           mkmem          15
            natom           2
            nband         210
           nbdbuf          10
            ngfft          24      24      24
             nkpt          29
-           npkpt           2
             nsym          48
           ntypat           1
           ortalg          -2
        paral_kgb           1
            rprim      0.0000000000E+00  3.3517340250E+00  3.3517340250E+00
                       3.3517340250E+00  0.0000000000E+00  3.3517340250E+00
                       3.3517340250E+00  3.3517340250E+00  0.0000000000E+00
          spgroup         227
           symrel      1  0  0   0  1  0   0  0  1      -1  0  0   0 -1  0   0  0 -1
                       0 -1  1   0 -1  0   1 -1  0       0  1 -1   0  1  0  -1  1  0
                      -1  0  0  -1  0  1  -1  1  0       1  0  0   1  0 -1   1 -1  0
                       0  1 -1   1  0 -1   0  0 -1       0 -1  1  -1  0  1   0  0  1
                      -1  0  0  -1  1  0  -1  0  1       1  0  0   1 -1  0   1  0 -1
                       0 -1  1   1 -1  0   0 -1  0       0  1 -1  -1  1  0   0  1  0
                       1  0  0   0  0  1   0  1  0      -1  0  0   0  0 -1   0 -1  0
                       0  1 -1   0  0 -1   1  0 -1       0 -1  1   0  0  1  -1  0  1
                      -1  0  1  -1  1  0  -1  0  0       1  0 -1   1 -1  0   1  0  0
                       0 -1  0   1 -1  0   0 -1  1       0  1  0  -1  1  0   0  1 -1
                       1  0 -1   0  0 -1   0  1 -1      -1  0  1   0  0  1   0 -1  1
                       0  1  0   0  0  1   1  0  0       0 -1  0   0  0 -1  -1  0  0
                       1  0 -1   0  1 -1   0  0 -1      -1  0  1   0 -1  1   0  0  1
                       0 -1  0   0 -1  1   1 -1  0       0  1  0   0  1 -1  -1  1  0
                      -1  0  1  -1  0  0  -1  1  0       1  0 -1   1  0  0   1 -1  0
                       0  1  0   1  0  0   0  0  1       0 -1  0  -1  0  0   0  0 -1
                       0  0 -1   0  1 -1   1  0 -1       0  0  1   0 -1  1  -1  0  1
                       1 -1  0   0 -1  1   0 -1  0      -1  1  0   0  1 -1   0  1  0
                       0  0  1   1  0  0   0  1  0       0  0 -1  -1  0  0   0 -1  0
                      -1  1  0  -1  0  0  -1  0  1       1 -1  0   1  0  0   1  0 -1
                       0  0  1   0  1  0   1  0  0       0  0 -1   0 -1  0  -1  0  0
                       1 -1  0   0 -1  0   0 -1  1      -1  1  0   0  1  0   0  1 -1
                       0  0 -1   1  0 -1   0  1 -1       0  0  1  -1  0  1   0 -1  1
                      -1  1  0  -1  0  1  -1  0  0       1 -1  0   1  0 -1   1  0  0
            tnons      0.0000000  0.0000000  0.0000000     0.2500000  0.2500000  0.2500000
                       0.0000000  0.0000000  0.0000000     0.2500000  0.2500000  0.2500000
                       0.0000000  0.0000000  0.0000000     0.2500000  0.2500000  0.2500000
                       0.0000000  0.0000000  0.0000000     0.2500000  0.2500000  0.2500000
                       0.0000000  0.0000000  0.0000000     0.2500000  0.2500000  0.2500000
                       0.0000000  0.0000000  0.0000000     0.2500000  0.2500000  0.2500000
                       0.0000000  0.0000000  0.0000000     0.2500000  0.2500000  0.2500000
                       0.0000000  0.0000000  0.0000000     0.2500000  0.2500000  0.2500000
                       0.0000000  0.0000000  0.0000000     0.2500000  0.2500000  0.2500000
                       0.0000000  0.0000000  0.0000000     0.2500000  0.2500000  0.2500000
                       0.0000000  0.0000000  0.0000000     0.2500000  0.2500000  0.2500000
                       0.0000000  0.0000000  0.0000000     0.2500000  0.2500000  0.2500000
                       0.0000000  0.0000000  0.0000000     0.2500000  0.2500000  0.2500000
                       0.0000000  0.0000000  0.0000000     0.2500000  0.2500000  0.2500000
                       0.0000000  0.0000000  0.0000000     0.2500000  0.2500000  0.2500000
                       0.0000000  0.0000000  0.0000000     0.2500000  0.2500000  0.2500000
                       0.0000000  0.0000000  0.0000000     0.2500000  0.2500000  0.2500000
                       0.0000000  0.0000000  0.0000000     0.2500000  0.2500000  0.2500000
                       0.0000000  0.0000000  0.0000000     0.2500000  0.2500000  0.2500000
                       0.0000000  0.0000000  0.0000000     0.2500000  0.2500000  0.2500000
                       0.0000000  0.0000000  0.0000000     0.2500000  0.2500000  0.2500000
                       0.0000000  0.0000000  0.0000000     0.2500000  0.2500000  0.2500000
                       0.0000000  0.0000000  0.0000000     0.2500000  0.2500000  0.2500000
                       0.0000000  0.0000000  0.0000000     0.2500000  0.2500000  0.2500000
           tolwfr      1.00000000E-16
            typat      1  1
         wfoptalg         114
              wtk        0.00195    0.01563    0.01563    0.01563    0.00781    0.01172
                         0.04688    0.04688    0.04688    0.04688    0.04688    0.02344
                         0.01172    0.04688    0.04688    0.04688    0.02344    0.01172
                         0.04688    0.02344    0.00586    0.04688    0.09375    0.04688
                         0.04688    0.09375    0.04688    0.02344    0.01172
           xangst      0.0000000000E+00  0.0000000000E+00  0.0000000000E+00
                       8.8683062764E-01  8.8683062764E-01  8.8683062764E-01
            xcart      0.0000000000E+00  0.0000000000E+00  0.0000000000E+00
                       1.6758670125E+00  1.6758670125E+00  1.6758670125E+00
             xred      0.0000000000E+00  0.0000000000E+00  0.0000000000E+00
                       2.5000000000E-01  2.5000000000E-01  2.5000000000E-01
            znucl        6.00000

================================================================================


- Timing analysis has been suppressed with timopt=0



================================================================================

 Suggested references for the acknowledgment of ABINIT usage.

 The users of ABINIT have little formal obligations with respect to the ABINIT group
 (those specified in the GNU General Public License, http://www.gnu.org/copyleft/gpl.txt).
 However, it is common practice in the scientific literature,
 to acknowledge the efforts of people that have made the research possible.
 In this spirit, please find below suggested citations of work written by ABINIT developers,
 corresponding to implementations inside of ABINIT that you have used in the present run.
 Note also that it will be of great value to readers of publications presenting these results,
 to read papers enabling them to understand the theoretical formalism and details
 of the ABINIT implementation.
 For information on why they are suggested, see also https://docs.abinit.org/theory/acknowledgments.
-
- [1] Large scale ab initio calculations based on three levels of parallelization
- F. Bottin, S. Leroux, A. Knyazev, G. Zerah, Comput. Mat. Science 42, 329, (2008).
- Comment: in case LOBPCG algorithm is used (wfoptalg=4/14/114).
- Strong suggestion to cite this paper in your publications.
- This paper is also available at http://www.arxiv.org/abs/0707.3405
- DOI and bibtex: see https://docs.abinit.org/theory/bibliography/#bottin2008
-
- [2] The Abinit project: Impact, environment and recent developments.
- Computer Phys. Comm. 248, 107042 (2020).
- X.Gonze, B. Amadon, G. Antonius, F.Arnardi, L.Baguet, J.-M.Beuken,
- J.Bieder, F.Bottin, J.Bouchet, E.Bousquet, N.Brouwer, F.Bruneval,
- G.Brunin, T.Cavignac, J.-B. Charraud, Wei Chen, M.Cote, S.Cottenier,
- J.Denier, G.Geneste, Ph.Ghosez, M.Giantomassi, Y.Gillet, O.Gingras,
- D.R.Hamann, G.Hautier, Xu He, N.Helbig, N.Holzwarth, Y.Jia, F.Jollet,
- W.Lafargue-Dit-Hauret, K.Lejaeghere, M.A.L.Marques, A.Martin, C.Martins,
- H.P.C. Miranda, F.Naccarato, K. Persson, G.Petretto, V.Planes, Y.Pouillon,
- S.Prokhorenko, F.Ricci, G.-M.Rignanese, A.H.Romero, M.M.Schmitt, M.Torrent,
- M.J.van Setten, B.Van Troeye, M.J.Verstraete, G.Zerah and J.W.Zwanzig
- Comment: the fifth generic paper describing the ABINIT project.
- Note that a version of this paper, that is not formatted for Computer Phys. Comm. 
- is available at https://www.abinit.org/sites/default/files/ABINIT20.pdf .
- The licence allows the authors to put it on the Web.
- DOI and bibtex: see https://docs.abinit.org/theory/bibliography/#gonze2020
-
- [3] Recent developments in the ABINIT software package.
- Computer Phys. Comm. 205, 106 (2016).
- X.Gonze, F.Jollet, F.Abreu Araujo, D.Adams, B.Amadon, T.Applencourt,
- C.Audouze, J.-M.Beuken, J.Bieder, A.Bokhanchuk, E.Bousquet, F.Bruneval
- D.Caliste, M.Cote, F.Dahm, F.Da Pieve, M.Delaveau, M.Di Gennaro,
- B.Dorado, C.Espejo, G.Geneste, L.Genovese, A.Gerossier, M.Giantomassi,
- Y.Gillet, D.R.Hamann, L.He, G.Jomard, J.Laflamme Janssen, S.Le Roux,
- A.Levitt, A.Lherbier, F.Liu, I.Lukacevic, A.Martin, C.Martins,
- M.J.T.Oliveira, S.Ponce, Y.Pouillon, T.Rangel, G.-M.Rignanese,
- A.H.Romero, B.Rousseau, O.Rubel, A.A.Shukri, M.Stankovski, M.Torrent,
- M.J.Van Setten, B.Van Troeye, M.J.Verstraete, D.Waroquier, J.Wiktor,
- B.Xu, A.Zhou, J.W.Zwanziger.
- Comment: the fourth generic paper describing the ABINIT project.
- Note that a version of this paper, that is not formatted for Computer Phys. Comm. 
- is available at https://www.abinit.org/sites/default/files/ABINIT16.pdf .
- The licence allows the authors to put it on the Web.
- DOI and bibtex: see https://docs.abinit.org/theory/bibliography/#gonze2016
-
- [4] ABINIT: First-principles approach of materials and nanosystem properties.
- Computer Phys. Comm. 180, 2582-2615 (2009).
- X. Gonze, B. Amadon, P.-M. Anglade, J.-M. Beuken, F. Bottin, P. Boulanger, F. Bruneval,
- D. Caliste, R. Caracas, M. Cote, T. Deutsch, L. Genovese, Ph. Ghosez, M. Giantomassi
- S. Goedecker, D.R. Hamann, P. Hermet, F. Jollet, G. Jomard, S. Leroux, M. Mancini, S. Mazevet,
- M.J.T. Oliveira, G. Onida, Y. Pouillon, T. Rangel, G.-M. Rignanese, D. Sangalli, R. Shaltaf,
- M. Torrent, M.J. Verstraete, G. Zerah, J.W. Zwanziger
- Comment: the third generic paper describing the ABINIT project.
- Note that a version of this paper, that is not formatted for Computer Phys. Comm. 
- is available at https://www.abinit.org/sites/default/files/ABINIT_CPC_v10.pdf .
- The licence allows the authors to put it on the Web.
- DOI and bibtex: see https://docs.abinit.org/theory/bibliography/#gonze2009
-
- And optionally:
-
- [5] A brief introduction to the ABINIT software package.
- Z. Kristallogr. 220, 558-562 (2005).
- X. Gonze, G.-M. Rignanese, M. Verstraete, J.-M. Beuken, Y. Pouillon, R. Caracas, F. Jollet,
- M. Torrent, G. Zerah, M. Mikami, Ph. Ghosez, M. Veithen, J.-Y. Raty, V. Olevano, F. Bruneval,
- L. Reining, R. Godby, G. Onida, D.R. Hamann, and D.C. Allan.
- Comment: the second generic paper describing the ABINIT project. Note that this paper
- should be cited especially if you are using the GW part of ABINIT, as several authors
- of this part are not in the list of authors of the first or third paper.
- The .pdf of the latter paper is available at https://www.abinit.org/sites/default/files/zfk_0505-06_558-562.pdf.
- Note that it should not redistributed (Copyright by Oldenburg Wissenschaftverlag,
- the licence allows the authors to put it on the Web).
- DOI and bibtex: see https://docs.abinit.org/theory/bibliography/#gonze2005
-
- Proc.   0 individual time (sec): cpu=        205.8  wall=        256.3

================================================================================

 Calculation completed.
.Delivered   0 WARNINGs and   2 COMMENTs to log file.
+Overall time at end (sec) : cpu=        398.6  wall=        512.6
