
.Version 8.5.3 of ABINIT 
.(MPI version, prepared for a x86_64_darwin16.7.0_gnu4.8 computer) 

.Copyright (C) 1998-2017 ABINIT group . 
 ABINIT comes with ABSOLUTELY NO WARRANTY.
 It is free software, and you are welcome to redistribute it
 under certain conditions (GNU General Public License,
 see ~abinit/COPYING or http://www.gnu.org/copyleft/gpl.txt).

 ABINIT is a project of the Universite Catholique de Louvain,
 Corning Inc. and other collaborators, see ~abinit/doc/developers/contributors.txt .
 Please read ~abinit/doc/users/acknowledgments.html for suggested
 acknowledgments of the ABINIT effort.
 For more information, see http://www.abinit.org .

.Starting date : Thu 12 Oct 2017.
- ( at 22h33 )
  
- input  file    -> /Users/gmatteo/git_repos/abitutorials/abitutorials/dfpt/flow_alas_phonons/w1/t2/run.abi
- output file    -> /Users/gmatteo/git_repos/abitutorials/abitutorials/dfpt/flow_alas_phonons/w1/t2/run.abo
- root for input  files -> /Users/gmatteo/git_repos/abitutorials/abitutorials/dfpt/flow_alas_phonons/w1/t2/indata/in
- root for output files -> /Users/gmatteo/git_repos/abitutorials/abitutorials/dfpt/flow_alas_phonons/w1/t2/outdata/out


 Symmetries : space group F-4 3 m (#216); Bravais cF (face-center cubic)
================================================================================
 Values of the parameters that define the memory need of the present run (RF).
     intxc =       0      iscf =      -3    lmnmax =       3     lnmax =       3
     mgfft =      18  mpssoang =       3    mqgrid =    3001     natom =       2
  nloc_mem =       1    nspden =       1   nspinor =       1    nsppol =       1
      nsym =      24    n1xccc =    2501    ntypat =       2    occopt =       1
   xclevel =       1
-    mband =           4        mffmem =           1         mkmem =          64
-   mkqmem =          64        mk1mem =          64           mpw =         213
      nfft =        5832          nkpt =         128
================================================================================
P This job should need less than                       4.978 Mbytes of memory.
  Rough estimation (10% accuracy) of disk space for files :
_ WF disk file :      1.666 Mbytes ; DEN or POT disk file :      0.046 Mbytes.
================================================================================

--------------------------------------------------------------------------------
------------- Echo of variables that govern the present computation ------------
--------------------------------------------------------------------------------
-
- outvars: echo of selected default values                                      
-   iomode0 =  0 , fftalg0 =112 , wfoptalg0 =  0
-
- outvars: echo of global parameters not present in the input file              
-  max_nthreads =    0
-
 -outvars: echo values of preprocessed input variables --------
            acell      1.0000000000E+00  1.0000000000E+00  1.0000000000E+00 Bohr
              amu      2.69815390E+01  7.49215900E+01
           diemac      9.00000000E+00
             ecut      6.00000000E+00 Hartree
-          fftalg         112
           irdwfk           1
             iscf          -3
              kpt     -1.25000000E-01 -2.50000000E-01  0.00000000E+00
                      -2.50000000E-01 -1.25000000E-01  0.00000000E+00
                      -1.25000000E-01 -1.25000000E-01  1.25000000E-01
                      -1.25000000E-01  5.00000000E-01  0.00000000E+00
                      -2.50000000E-01 -3.75000000E-01  0.00000000E+00
                      -1.25000000E-01 -3.75000000E-01  1.25000000E-01
                      -3.75000000E-01 -2.50000000E-01  0.00000000E+00
                      -2.50000000E-01 -2.50000000E-01  1.25000000E-01
                      -1.25000000E-01 -2.50000000E-01  2.50000000E-01
                       5.00000000E-01 -1.25000000E-01  0.00000000E+00
                      -3.75000000E-01 -1.25000000E-01  1.25000000E-01
                      -2.50000000E-01 -1.25000000E-01  2.50000000E-01
                      -1.25000000E-01 -1.25000000E-01  3.75000000E-01
                      -1.25000000E-01  2.50000000E-01  0.00000000E+00
                      -2.50000000E-01  3.75000000E-01  0.00000000E+00
                      -1.25000000E-01  3.75000000E-01  1.25000000E-01
                      -3.75000000E-01  5.00000000E-01  0.00000000E+00
                      -2.50000000E-01  5.00000000E-01  1.25000000E-01
                      -1.25000000E-01  5.00000000E-01  2.50000000E-01
                       5.00000000E-01 -3.75000000E-01  0.00000000E+00
                      -3.75000000E-01 -3.75000000E-01  1.25000000E-01
                      -2.50000000E-01 -3.75000000E-01  2.50000000E-01
                      -1.25000000E-01 -3.75000000E-01  3.75000000E-01
                       3.75000000E-01 -2.50000000E-01  0.00000000E+00
                       5.00000000E-01 -2.50000000E-01  1.25000000E-01
                      -3.75000000E-01 -2.50000000E-01  2.50000000E-01
                      -2.50000000E-01 -2.50000000E-01  3.75000000E-01
                      -1.25000000E-01 -2.50000000E-01  5.00000000E-01
                       2.50000000E-01 -1.25000000E-01  0.00000000E+00
                       3.75000000E-01 -1.25000000E-01  1.25000000E-01
                       5.00000000E-01 -1.25000000E-01  2.50000000E-01
                      -3.75000000E-01 -1.25000000E-01  3.75000000E-01
                      -2.50000000E-01 -1.25000000E-01  5.00000000E-01
                      -1.25000000E-01 -1.25000000E-01 -3.75000000E-01
                      -1.25000000E-01  0.00000000E+00  0.00000000E+00
                      -1.25000000E-01  1.25000000E-01  1.25000000E-01
                      -2.50000000E-01  2.50000000E-01  1.25000000E-01
                      -1.25000000E-01  2.50000000E-01  2.50000000E-01
                      -3.75000000E-01  3.75000000E-01  1.25000000E-01
                      -2.50000000E-01  3.75000000E-01  2.50000000E-01
                      -1.25000000E-01  3.75000000E-01  3.75000000E-01
                       5.00000000E-01  5.00000000E-01  1.25000000E-01
                      -3.75000000E-01  5.00000000E-01  2.50000000E-01
                      -2.50000000E-01  5.00000000E-01  3.75000000E-01
                      -1.25000000E-01  5.00000000E-01  5.00000000E-01
                       3.75000000E-01 -3.75000000E-01  1.25000000E-01
                       5.00000000E-01 -3.75000000E-01  2.50000000E-01
                      -3.75000000E-01 -3.75000000E-01  3.75000000E-01
                      -2.50000000E-01 -3.75000000E-01  5.00000000E-01
                      -1.25000000E-01 -3.75000000E-01 -3.75000000E-01
                       outvar_i_n : Printing only first  50 k-points.
           kptopt           2
         kptrlatt        4   -4    4     -4    4    4     -4   -4    4
          kptrlen      4.24400000E+01
P           mkmem          64
P          mkqmem          64
P          mk1mem          64
            natom           2
            nband           4
            ngfft          18      18      18
             nkpt         128
             nqpt           1
            nstep          25
             nsym          24
           ntypat           2
              occ      2.000000  2.000000  2.000000  2.000000
        optdriver           1
            rfdir           0       0       1
           rfelfd           2
            rprim      0.0000000000E+00  5.3050000000E+00  5.3050000000E+00
                       5.3050000000E+00  0.0000000000E+00  5.3050000000E+00
                       5.3050000000E+00  5.3050000000E+00  0.0000000000E+00
           shiftk      5.00000000E-01  5.00000000E-01  5.00000000E-01
          spgroup         216
           symrel      1  0  0   0  1  0   0  0  1       0 -1  1   0 -1  0   1 -1  0
                      -1  0  0  -1  0  1  -1  1  0       0  1 -1   1  0 -1   0  0 -1
                      -1  0  0  -1  1  0  -1  0  1       0 -1  1   1 -1  0   0 -1  0
                       1  0  0   0  0  1   0  1  0       0  1 -1   0  0 -1   1  0 -1
                      -1  0  1  -1  1  0  -1  0  0       0 -1  0   1 -1  0   0 -1  1
                       1  0 -1   0  0 -1   0  1 -1       0  1  0   0  0  1   1  0  0
                       1  0 -1   0  1 -1   0  0 -1       0 -1  0   0 -1  1   1 -1  0
                      -1  0  1  -1  0  0  -1  1  0       0  1  0   1  0  0   0  0  1
                       0  0 -1   0  1 -1   1  0 -1       1 -1  0   0 -1  1   0 -1  0
                       0  0  1   1  0  0   0  1  0      -1  1  0  -1  0  0  -1  0  1
                       0  0  1   0  1  0   1  0  0       1 -1  0   0 -1  0   0 -1  1
                       0  0 -1   1  0 -1   0  1 -1      -1  1  0  -1  0  1  -1  0  0
           tolwfr      1.00000000E-22
            typat      1  2
              wtk        0.00781    0.00781    0.00781    0.00781    0.00781    0.00781
                         0.00781    0.00781    0.00781    0.00781    0.00781    0.00781
                         0.00781    0.00781    0.00781    0.00781    0.00781    0.00781
                         0.00781    0.00781    0.00781    0.00781    0.00781    0.00781
                         0.00781    0.00781    0.00781    0.00781    0.00781    0.00781
                         0.00781    0.00781    0.00781    0.00781    0.00781    0.00781
                         0.00781    0.00781    0.00781    0.00781    0.00781    0.00781
                         0.00781    0.00781    0.00781    0.00781    0.00781    0.00781
                         0.00781    0.00781
                       outvars : Printing only first  50 k-points.
           xangst      0.0000000000E+00  0.0000000000E+00  0.0000000000E+00
                       1.4036425458E+00  1.4036425458E+00  1.4036425458E+00
            xcart      0.0000000000E+00  0.0000000000E+00  0.0000000000E+00
                       2.6525000000E+00  2.6525000000E+00  2.6525000000E+00
             xred      0.0000000000E+00  0.0000000000E+00  0.0000000000E+00
                       2.5000000000E-01  2.5000000000E-01  2.5000000000E-01
            znucl       13.00000   33.00000

================================================================================

 chkinp: Checking input parameters for consistency.

================================================================================
== DATASET  1 ==================================================================
-   nproc =    2

 Exchange-correlation functional for the present dataset will be:
  LDA: new Teter (4/93) with spin-polarized option - ixc=1
 Citation for XC functional:
  S. Goedecker, M. Teter, J. Huetter, PRB 54, 1703 (1996)

 Real(R)+Recip(G) space primitive vectors, cartesian coordinates (Bohr,Bohr^-1):
 R(1)=  0.0000000  5.3050000  5.3050000  G(1)= -0.0942507  0.0942507  0.0942507
 R(2)=  5.3050000  0.0000000  5.3050000  G(2)=  0.0942507 -0.0942507  0.0942507
 R(3)=  5.3050000  5.3050000  0.0000000  G(3)=  0.0942507  0.0942507 -0.0942507
 Unit cell volume ucvol=  2.9859750E+02 bohr^3
 Angles (23,13,12)=  6.00000000E+01  6.00000000E+01  6.00000000E+01 degrees
 setup1 : take into account q-point for computing boxcut.

 getcut: wavevector=  0.0000  0.0000  0.0000  ngfft=  18  18  18
         ecut(hartree)=      6.000   => boxcut(ratio)=   2.18257

--- Pseudopotential description ------------------------------------------------
- pspini: atom type   1  psp file is /Users/gmatteo/git_repos/abipy/abipy/data/pseudos/13al.981214.fhi
- pspatm: opening atomic psp file    /Users/gmatteo/git_repos/abipy/abipy/data/pseudos/13al.981214.fhi
- Aluminum, fhi98PP : Hamann-type, LDA CA PerdewWang, l=2 local
- 13.00000   3.00000    981214                znucl, zion, pspdat
    6    7    2    2       493   0.00000      pspcod,pspxc,lmax,lloc,mmax,r2well
  No XC core correction.
  1.024700          amesh (Hamman grid)
  pspatm : epsatm=    1.36305739
         --- l  ekb(1:nproj) -->
             0    1.768744
             1    0.900554
 pspatm: atomic psp has been read  and splines computed

- pspini: atom type   2  psp file is /Users/gmatteo/git_repos/abipy/abipy/data/pseudos/33as.pspnc
- pspatm: opening atomic psp file    /Users/gmatteo/git_repos/abipy/abipy/data/pseudos/33as.pspnc
-  Troullier-Martins psp for element  As        Thu Oct 27 17:37:14 EDT 1994
- 33.00000   5.00000    940714                znucl, zion, pspdat
    1    1    1    1      2001   0.00000      pspcod,pspxc,lmax,lloc,mmax,r2well
    0   4.772  10.829    1   2.5306160        l,e99.0,e99.9,nproj,rcpsp
   0.00000000   0.00000000   0.00000000   0.00000000     rms, ekb1, ekb2, epsatm
    1   2.745   5.580    0   2.5306160        l,e99.0,e99.9,nproj,rcpsp
   0.00000000   0.00000000   0.00000000   0.00000000     rms, ekb1, ekb2, epsatm
    2.05731715564010    0.36322996461007    2.76014815959125   rchrg,fchrg,qchrg
  pspatm : epsatm=   27.20579911
         --- l  ekb(1:nproj) -->
             0    0.838751
 pspatm: atomic psp has been read  and splines computed

--------------------------------------------------------------------------------

-inwffil : will read wavefunctions from disk file /Users/gmatteo/git_repos/abitutorials/abitutorials/dfpt/flow_alas_phonons/w1/t2/indata/in_WFK

 ==>  initialize data related to q vector <== 

 The list of irreducible perturbations for this q vector is:
    1)    idir= 3    ipert=   3

================================================================================

--------------------------------------------------------------------------------
 Perturbation wavevector (in red.coord.)   0.000000  0.000000  0.000000
 Perturbation : derivative vs k along direction   3
 The set of symmetries contains only one element for this perturbation.
 symkpt : not enough symmetry to change the number of k points.

--------------------------------------------------------------------------------

-inwffil : will read wavefunctions from disk file /Users/gmatteo/git_repos/abitutorials/abitutorials/dfpt/flow_alas_phonons/w1/t2/indata/in_WFK
--------------------------------------------------------------------------------

 Initialisation of the first-order wave-functions :
  ireadwf=   0

     iter   2DEtotal(Ha)        deltaE(Ha) residm    vres2
-ETOT  1  -8.3985049724647     -8.399E+00 2.547E-02 0.000E+00
 ETOT  2  -8.4020789334308     -3.574E-03 3.042E-05 0.000E+00
 ETOT  3  -8.4020810843052     -2.151E-06 5.030E-08 0.000E+00
 ETOT  4  -8.4020810876980     -3.393E-09 1.034E-10 0.000E+00
 ETOT  5  -8.4020810877052     -7.176E-12 2.357E-13 0.000E+00
 ETOT  6  -8.4020810877051      1.243E-14 7.882E-16 0.000E+00
 ETOT  7  -8.4020810877051     -7.105E-15 1.893E-18 0.000E+00
 ETOT  8  -8.4020810877051      1.776E-15 6.804E-21 0.000E+00
 ETOT  9  -8.4020810877051      1.776E-15 9.409E-23 0.000E+00

 At SCF step    9   max residual=  9.41E-23 < tolwfr=  1.00E-22 =>converged.
================================================================================

 ----iterations are completed or convergence reached----

 Mean square residual over all n,k,spin=   3.4825E-23; max=  9.4088E-23
 dfpt_looppert : ek2=    1.6833336546E+01
          f-sum rule ratio=    1.0101890352E+00
 prteigrs : about to open file /Users/gmatteo/git_repos/abitutorials/abitutorials/dfpt/flow_alas_phonons/w1/t2/tmpdata/tmp_1WF1_EIG
 Expectation of eigenvalue derivatives (hartree) for nkpt= 128  k points:
  (in case of degenerate eigenvalues, averaged derivative)
 kpt#   1, nband=  4, wtk=  0.00781, kpt= -0.1250 -0.2500  0.0000 (reduced coord)
   0.08460   -0.21422   -0.12247   -0.17487
 prteigrs : prtvol=0 or 1, do not print more k-points.


 Eight components of 2nd-order total energy (hartree) are
 1,2,3: 0th-order hamiltonian combined with 1st-order wavefunctions
     kin0=   2.31895894E+01 eigvalue=  -1.19435662E+00  local=  -1.81261355E+01
 4,5,6: 1st-order hamiltonian combined with 1st and 0th-order wfs
     kin1=  -1.70048520E+01  Hartree=   0.00000000E+00     xc=   0.00000000E+00
 7,8,9: eventually, occupation + non-local contributions
    edocc=   0.00000000E+00     enl0=   4.53298384E+00   enl1=   2.00689829E-01
 1-9 gives the relaxation energy (to be shifted if some occ is /=2.0)
   erelax=  -8.40208109E+00
  No Ewald or frozen-wf contrib.: the relaxation energy is the total one
 2DEtotal=   -0.8402081088E+01 Ha. Also 2DEtotal=   -0.228632253700E+03 eV
    (  non-var. 2DEtotal :   -8.4020810877E+00 Ha)
================================================================================

 ---- first-order wavefunction calculations are completed ----


 Total localisation tensor (bohr^2) in cartesian coordinates
  WARNING : still subject to testing - especially symmetries.
      direction              matrix element
   alpha     beta       real part   imaginary part
     1        1       1.8948350658    0.0000000000
     1        2       1.8948350658    0.0000000000
     1        3       0.0000000000    0.0000000000
     2        1       1.8948350658    0.0000000000
     2        2       1.8948350658    0.0000000000
     2        3       0.0000000000    0.0000000000
     3        1       0.0000000000    0.0000000000
     3        2       0.0000000000    0.0000000000
     3        3       0.0000000000    0.0000000000

 WARNING : Localization tensor calculation (this does not apply to other properties).
  Not all d/dk perturbations were computed. So the localization tensor in reciprocal space is incomplete,
  and transformation to cartesian coordinates may be wrong.

 respfn : d/dk was computed, but no 2DTE, so no DDB output.

== END DATASET(S) ==============================================================
================================================================================
  
 -outvars: echo values of variables after computation  --------
            acell      1.0000000000E+00  1.0000000000E+00  1.0000000000E+00 Bohr
              amu      2.69815390E+01  7.49215900E+01
           diemac      9.00000000E+00
             ecut      6.00000000E+00 Hartree
           etotal     -8.4020810877E+00
-          fftalg         112
           irdwfk           1
             iscf          -3
              kpt     -1.25000000E-01 -2.50000000E-01  0.00000000E+00
                      -2.50000000E-01 -1.25000000E-01  0.00000000E+00
                      -1.25000000E-01 -1.25000000E-01  1.25000000E-01
                      -1.25000000E-01  5.00000000E-01  0.00000000E+00
                      -2.50000000E-01 -3.75000000E-01  0.00000000E+00
                      -1.25000000E-01 -3.75000000E-01  1.25000000E-01
                      -3.75000000E-01 -2.50000000E-01  0.00000000E+00
                      -2.50000000E-01 -2.50000000E-01  1.25000000E-01
                      -1.25000000E-01 -2.50000000E-01  2.50000000E-01
                       5.00000000E-01 -1.25000000E-01  0.00000000E+00
                      -3.75000000E-01 -1.25000000E-01  1.25000000E-01
                      -2.50000000E-01 -1.25000000E-01  2.50000000E-01
                      -1.25000000E-01 -1.25000000E-01  3.75000000E-01
                      -1.25000000E-01  2.50000000E-01  0.00000000E+00
                      -2.50000000E-01  3.75000000E-01  0.00000000E+00
                      -1.25000000E-01  3.75000000E-01  1.25000000E-01
                      -3.75000000E-01  5.00000000E-01  0.00000000E+00
                      -2.50000000E-01  5.00000000E-01  1.25000000E-01
                      -1.25000000E-01  5.00000000E-01  2.50000000E-01
                       5.00000000E-01 -3.75000000E-01  0.00000000E+00
                      -3.75000000E-01 -3.75000000E-01  1.25000000E-01
                      -2.50000000E-01 -3.75000000E-01  2.50000000E-01
                      -1.25000000E-01 -3.75000000E-01  3.75000000E-01
                       3.75000000E-01 -2.50000000E-01  0.00000000E+00
                       5.00000000E-01 -2.50000000E-01  1.25000000E-01
                      -3.75000000E-01 -2.50000000E-01  2.50000000E-01
                      -2.50000000E-01 -2.50000000E-01  3.75000000E-01
                      -1.25000000E-01 -2.50000000E-01  5.00000000E-01
                       2.50000000E-01 -1.25000000E-01  0.00000000E+00
                       3.75000000E-01 -1.25000000E-01  1.25000000E-01
                       5.00000000E-01 -1.25000000E-01  2.50000000E-01
                      -3.75000000E-01 -1.25000000E-01  3.75000000E-01
                      -2.50000000E-01 -1.25000000E-01  5.00000000E-01
                      -1.25000000E-01 -1.25000000E-01 -3.75000000E-01
                      -1.25000000E-01  0.00000000E+00  0.00000000E+00
                      -1.25000000E-01  1.25000000E-01  1.25000000E-01
                      -2.50000000E-01  2.50000000E-01  1.25000000E-01
                      -1.25000000E-01  2.50000000E-01  2.50000000E-01
                      -3.75000000E-01  3.75000000E-01  1.25000000E-01
                      -2.50000000E-01  3.75000000E-01  2.50000000E-01
                      -1.25000000E-01  3.75000000E-01  3.75000000E-01
                       5.00000000E-01  5.00000000E-01  1.25000000E-01
                      -3.75000000E-01  5.00000000E-01  2.50000000E-01
                      -2.50000000E-01  5.00000000E-01  3.75000000E-01
                      -1.25000000E-01  5.00000000E-01  5.00000000E-01
                       3.75000000E-01 -3.75000000E-01  1.25000000E-01
                       5.00000000E-01 -3.75000000E-01  2.50000000E-01
                      -3.75000000E-01 -3.75000000E-01  3.75000000E-01
                      -2.50000000E-01 -3.75000000E-01  5.00000000E-01
                      -1.25000000E-01 -3.75000000E-01 -3.75000000E-01
                       outvar_i_n : Printing only first  50 k-points.
           kptopt           2
         kptrlatt        4   -4    4     -4    4    4     -4   -4    4
          kptrlen      4.24400000E+01
P           mkmem          64
P          mkqmem          64
P          mk1mem          64
            natom           2
            nband           4
            ngfft          18      18      18
             nkpt         128
             nqpt           1
            nstep          25
             nsym          24
           ntypat           2
              occ      2.000000  2.000000  2.000000  2.000000
        optdriver           1
            rfdir           0       0       1
           rfelfd           2
            rprim      0.0000000000E+00  5.3050000000E+00  5.3050000000E+00
                       5.3050000000E+00  0.0000000000E+00  5.3050000000E+00
                       5.3050000000E+00  5.3050000000E+00  0.0000000000E+00
           shiftk      5.00000000E-01  5.00000000E-01  5.00000000E-01
          spgroup         216
           symrel      1  0  0   0  1  0   0  0  1       0 -1  1   0 -1  0   1 -1  0
                      -1  0  0  -1  0  1  -1  1  0       0  1 -1   1  0 -1   0  0 -1
                      -1  0  0  -1  1  0  -1  0  1       0 -1  1   1 -1  0   0 -1  0
                       1  0  0   0  0  1   0  1  0       0  1 -1   0  0 -1   1  0 -1
                      -1  0  1  -1  1  0  -1  0  0       0 -1  0   1 -1  0   0 -1  1
                       1  0 -1   0  0 -1   0  1 -1       0  1  0   0  0  1   1  0  0
                       1  0 -1   0  1 -1   0  0 -1       0 -1  0   0 -1  1   1 -1  0
                      -1  0  1  -1  0  0  -1  1  0       0  1  0   1  0  0   0  0  1
                       0  0 -1   0  1 -1   1  0 -1       1 -1  0   0 -1  1   0 -1  0
                       0  0  1   1  0  0   0  1  0      -1  1  0  -1  0  0  -1  0  1
                       0  0  1   0  1  0   1  0  0       1 -1  0   0 -1  0   0 -1  1
                       0  0 -1   1  0 -1   0  1 -1      -1  1  0  -1  0  1  -1  0  0
           tolwfr      1.00000000E-22
            typat      1  2
              wtk        0.00781    0.00781    0.00781    0.00781    0.00781    0.00781
                         0.00781    0.00781    0.00781    0.00781    0.00781    0.00781
                         0.00781    0.00781    0.00781    0.00781    0.00781    0.00781
                         0.00781    0.00781    0.00781    0.00781    0.00781    0.00781
                         0.00781    0.00781    0.00781    0.00781    0.00781    0.00781
                         0.00781    0.00781    0.00781    0.00781    0.00781    0.00781
                         0.00781    0.00781    0.00781    0.00781    0.00781    0.00781
                         0.00781    0.00781    0.00781    0.00781    0.00781    0.00781
                         0.00781    0.00781
                       outvars : Printing only first  50 k-points.
           xangst      0.0000000000E+00  0.0000000000E+00  0.0000000000E+00
                       1.4036425458E+00  1.4036425458E+00  1.4036425458E+00
            xcart      0.0000000000E+00  0.0000000000E+00  0.0000000000E+00
                       2.6525000000E+00  2.6525000000E+00  2.6525000000E+00
             xred      0.0000000000E+00  0.0000000000E+00  0.0000000000E+00
                       2.5000000000E-01  2.5000000000E-01  2.5000000000E-01
            znucl       13.00000   33.00000

================================================================================


- Timing analysis has been suppressed with timopt=0



================================================================================

 Suggested references for the acknowledgment of ABINIT usage.

 The users of ABINIT have little formal obligations with respect to the ABINIT group
 (those specified in the GNU General Public License, http://www.gnu.org/copyleft/gpl.txt).
 However, it is common practice in the scientific literature,
 to acknowledge the efforts of people that have made the research possible.
 In this spirit, please find below suggested citations of work written by ABINIT developers,
 corresponding to implementations inside of ABINIT that you have used in the present run.
 Note also that it will be of great value to readers of publications presenting these results,
 to read papers enabling them to understand the theoretical formalism and details
 of the ABINIT implementation.
 For information on why they are suggested, see also http://www.abinit.org/about/?text=acknowledgments.
-
- [1] Recent developments in the ABINIT software package.
- Computer Phys. Comm. 205, 106 (2016).
- X.Gonze, F.Jollet, F.Abreu Araujo, D.Adams, B.Amadon, T.Applencourt,
- C.Audouze, J.-M.Beuken, J.Bieder, A.Bokhanchuk, E.Bousquet, F.Bruneval
- D.Caliste, M.Cote, F.Dahm, F.Da Pieve, M.Delaveau, M.Di Gennaro,
- B.Dorado, C.Espejo, G.Geneste, L.Genovese, A.Gerossier, M.Giantomassi,
- Y.Gillet, D.R.Hamann, L.He, G.Jomard, J.Laflamme Janssen, S.Le Roux,
- A.Levitt, A.Lherbier, F.Liu, I.Lukacevic, A.Martin, C.Martins,
- M.J.T.Oliveira, S.Ponce, Y.Pouillon, T.Rangel, G.-M.Rignanese,
- A.H.Romero, B.Rousseau, O.Rubel, A.A.Shukri, M.Stankovski, M.Torrent,
- M.J.Van Setten, B.Van Troeye, M.J.Verstraete, D.Waroquier, J.Wiktor,
- B.Xue, A.Zhou, J.W.Zwanziger.
- Comment : the fourth generic paper describing the ABINIT project.
- Note that a version of this paper, that is not formatted for Computer Phys. Comm. 
- is available at http://www.abinit.org/about/ABINIT16.pdf .
- The licence allows the authors to put it on the Web.
-
- [2] First-principles responses of solids to atomic displacements and homogeneous electric fields:,
- implementation of a conjugate-gradient algorithm. X. Gonze, Phys. Rev. B55, 10337 (1997).
- Comment : Non-vanishing rfphon and/or rfelfd, in the norm-conserving case.
-
- [3] Dynamical matrices, Born effective charges, dielectric permittivity tensors, and ,
- interatomic force constants from density-functional perturbation theory,
- X. Gonze and C. Lee, Phys. Rev. B55, 10355 (1997).
- Comment : Non-vanishing rfphon and/or rfelfd, in the norm-conserving case.
-
- [4] Ab initio pseudopotentials for electronic structure calculations of poly-atomic systems, 
- using density-functional theory.
- M. Fuchs, M. Scheffler, Comput. Phys. Commun. 119, 67 (1999).
- Comment : Some pseudopotential generated using the FHI code were used.
-
- [5] ABINIT : First-principles approach of materials and nanosystem properties.
- Computer Phys. Comm. 180, 2582-2615 (2009).
- X. Gonze, B. Amadon, P.-M. Anglade, J.-M. Beuken, F. Bottin, P. Boulanger, F. Bruneval,
- D. Caliste, R. Caracas, M. Cote, T. Deutsch, L. Genovese, Ph. Ghosez, M. Giantomassi
- S. Goedecker, D.R. Hamann, P. Hermet, F. Jollet, G. Jomard, S. Leroux, M. Mancini, S. Mazevet,
- M.J.T. Oliveira, G. Onida, Y. Pouillon, T. Rangel, G.-M. Rignanese, D. Sangalli, R. Shaltaf,
- M. Torrent, M.J. Verstraete, G. Zerah, J.W. Zwanziger
- Comment : the third generic paper describing the ABINIT project.
- Note that a version of this paper, that is not formatted for Computer Phys. Comm. 
- is available at http://www.abinit.org/about/ABINIT_CPC_v10.pdf .
- The licence allows the authors to put it on the Web.
-
- [6] A brief introduction to the ABINIT software package.
- Z. Kristallogr. 220, 558-562 (2005).
- X. Gonze, G.-M. Rignanese, M. Verstraete, J.-M. Beuken, Y. Pouillon, R. Caracas, F. Jollet,
- M. Torrent, G. Zerah, M. Mikami, Ph. Ghosez, M. Veithen, J.-Y. Raty, V. Olevano, F. Bruneval,
- L. Reining, R. Godby, G. Onida, D.R. Hamann, and D.C. Allan.
- Comment : the second generic paper describing the ABINIT project. Note that this paper
- should be cited especially if you are using the GW part of ABINIT, as several authors
- of this part are not in the list of authors of the first or third paper.
- The .pdf of the latter paper is available at http://www.abinit.org/about/zfk_0505-06_558-562.pdf.
- Note that it should not redistributed (Copyright by Oldenburg Wissenshaftverlag,
- the licence allows the authors to put it on the Web).
-
- Proc.   0 individual time (sec): cpu=          5.2  wall=         26.4

================================================================================

 Calculation completed.
.Delivered   2 WARNINGs and   0 COMMENTs to log file.
+Overall time at end (sec) : cpu=         10.3  wall=         52.8
