
.Version 8.5.3 of ABINIT 
.(MPI version, prepared for a x86_64_darwin16.7.0_gnu4.8 computer) 

.Copyright (C) 1998-2017 ABINIT group . 
 ABINIT comes with ABSOLUTELY NO WARRANTY.
 It is free software, and you are welcome to redistribute it
 under certain conditions (GNU General Public License,
 see ~abinit/COPYING or http://www.gnu.org/copyleft/gpl.txt).

 ABINIT is a project of the Universite Catholique de Louvain,
 Corning Inc. and other collaborators, see ~abinit/doc/developers/contributors.txt .
 Please read ~abinit/doc/users/acknowledgments.html for suggested
 acknowledgments of the ABINIT effort.
 For more information, see http://www.abinit.org .

.Starting date : Fri 13 Oct 2017.
- ( at 15h19 )
  
- input  file    -> /Users/gmatteo/git_repos/abitutorials/abitutorials/bse/flow_bse_kconv/w1/t2/run.abi
- output file    -> /Users/gmatteo/git_repos/abitutorials/abitutorials/bse/flow_bse_kconv/w1/t2/run.abo
- root for input  files -> /Users/gmatteo/git_repos/abitutorials/abitutorials/bse/flow_bse_kconv/w1/t2/indata/in
- root for output files -> /Users/gmatteo/git_repos/abitutorials/abitutorials/bse/flow_bse_kconv/w1/t2/outdata/out


 Symmetries : space group Fd -3 m (#227); Bravais cF (face-center cubic)
================================================================================
 Values of the parameters that define the memory need of the present run
     intxc =       0    ionmov =       0      iscf =       7    lmnmax =       2
     lnmax =       2     mgfft =      16  mpssoang =       3    mqgrid =    3001
     natom =       2  nloc_mem =       1    nspden =       1   nspinor =       1
    nsppol =       1      nsym =      48    n1xccc =    2501    ntypat =       1
    occopt =       1   xclevel =       1
-    mband =           6        mffmem =           1         mkmem =         108
       mpw =         153          nfft =        4096          nkpt =         216
================================================================================
P This job should need less than                       3.611 Mbytes of memory.
  Rough estimation (10% accuracy) of disk space for files :
_ WF disk file :      3.028 Mbytes ; DEN or POT disk file :      0.033 Mbytes.
================================================================================

--------------------------------------------------------------------------------
------------- Echo of variables that govern the present computation ------------
--------------------------------------------------------------------------------
-
- outvars: echo of selected default values                                      
-   iomode0 =  0 , fftalg0 =112 , wfoptalg0 =  0
-
- outvars: echo of global parameters not present in the input file              
-  max_nthreads =    0
-
 -outvars: echo values of preprocessed input variables --------
            acell      1.0000000000E+00  1.0000000000E+00  1.0000000000E+00 Bohr
              amu      2.80855000E+01
  bs_coulomb_term          21
     bs_freq_mesh      0.00000000E+00  2.20495952E-01  7.34986508E-04 Hartree
        bs_loband           2
      chksymbreak           0
           diemac      1.20000000E+01
             ecut      5.10559920E+00 Hartree
          ecuteps      2.26915520E+00 Hartree
          ecutwfn      5.10559920E+00 Hartree
-          fftalg         112
           irdwfk           1
              kpt      1.83333333E-02  3.50000000E-02  5.16666667E-02
                       1.85000000E-01  3.50000000E-02  5.16666667E-02
                       3.51666667E-01  3.50000000E-02  5.16666667E-02
                      -4.81666667E-01  3.50000000E-02  5.16666667E-02
                      -3.15000000E-01  3.50000000E-02  5.16666667E-02
                      -1.48333333E-01  3.50000000E-02  5.16666667E-02
                       1.83333333E-02  2.01666667E-01  5.16666667E-02
                       1.85000000E-01  2.01666667E-01  5.16666667E-02
                       3.51666667E-01  2.01666667E-01  5.16666667E-02
                      -4.81666667E-01  2.01666667E-01  5.16666667E-02
                      -3.15000000E-01  2.01666667E-01  5.16666667E-02
                      -1.48333333E-01  2.01666667E-01  5.16666667E-02
                       1.83333333E-02  3.68333333E-01  5.16666667E-02
                       1.85000000E-01  3.68333333E-01  5.16666667E-02
                       3.51666667E-01  3.68333333E-01  5.16666667E-02
                      -4.81666667E-01  3.68333333E-01  5.16666667E-02
                      -3.15000000E-01  3.68333333E-01  5.16666667E-02
                      -1.48333333E-01  3.68333333E-01  5.16666667E-02
                       1.83333333E-02 -4.65000000E-01  5.16666667E-02
                       1.85000000E-01 -4.65000000E-01  5.16666667E-02
                       3.51666667E-01 -4.65000000E-01  5.16666667E-02
                      -4.81666667E-01 -4.65000000E-01  5.16666667E-02
                      -3.15000000E-01 -4.65000000E-01  5.16666667E-02
                      -1.48333333E-01 -4.65000000E-01  5.16666667E-02
                       1.83333333E-02 -2.98333333E-01  5.16666667E-02
                       1.85000000E-01 -2.98333333E-01  5.16666667E-02
                       3.51666667E-01 -2.98333333E-01  5.16666667E-02
                      -4.81666667E-01 -2.98333333E-01  5.16666667E-02
                      -3.15000000E-01 -2.98333333E-01  5.16666667E-02
                      -1.48333333E-01 -2.98333333E-01  5.16666667E-02
                       1.83333333E-02 -1.31666667E-01  5.16666667E-02
                       1.85000000E-01 -1.31666667E-01  5.16666667E-02
                       3.51666667E-01 -1.31666667E-01  5.16666667E-02
                      -4.81666667E-01 -1.31666667E-01  5.16666667E-02
                      -3.15000000E-01 -1.31666667E-01  5.16666667E-02
                      -1.48333333E-01 -1.31666667E-01  5.16666667E-02
                       1.83333333E-02  3.50000000E-02  2.18333333E-01
                       1.85000000E-01  3.50000000E-02  2.18333333E-01
                       3.51666667E-01  3.50000000E-02  2.18333333E-01
                      -4.81666667E-01  3.50000000E-02  2.18333333E-01
                      -3.15000000E-01  3.50000000E-02  2.18333333E-01
                      -1.48333333E-01  3.50000000E-02  2.18333333E-01
                       1.83333333E-02  2.01666667E-01  2.18333333E-01
                       1.85000000E-01  2.01666667E-01  2.18333333E-01
                       3.51666667E-01  2.01666667E-01  2.18333333E-01
                      -4.81666667E-01  2.01666667E-01  2.18333333E-01
                      -3.15000000E-01  2.01666667E-01  2.18333333E-01
                      -1.48333333E-01  2.01666667E-01  2.18333333E-01
                       1.83333333E-02  3.68333333E-01  2.18333333E-01
                       1.85000000E-01  3.68333333E-01  2.18333333E-01
                       outvar_i_n : Printing only first  50 k-points.
         kptrlatt        6    0    0      0    6    0      0    0    6
          kptrlen      4.33470599E+01
       mbpt_sciss      2.93994603E-02 Hartree
       mdf_epsinf      1.20000000E+01
P           mkmem         108
            natom           2
            nband           6
            ngfft          16      16      16
             nkpt         216
           npweps          59
           npwwfn         169
             nsym          48
           ntypat           1
              occ      2.000000  2.000000  2.000000  2.000000  0.000000  0.000000
        optdriver          99
            rprim      0.0000000000E+00  5.1085000000E+00  5.1085000000E+00
                       5.1085000000E+00  0.0000000000E+00  5.1085000000E+00
                       5.1085000000E+00  5.1085000000E+00  0.0000000000E+00
           shiftk      1.10000000E-01  2.10000000E-01  3.10000000E-01
          spgroup         227
           symrel      1  0  0   0  1  0   0  0  1      -1  0  0   0 -1  0   0  0 -1
                       0 -1  1   0 -1  0   1 -1  0       0  1 -1   0  1  0  -1  1  0
                      -1  0  0  -1  0  1  -1  1  0       1  0  0   1  0 -1   1 -1  0
                       0  1 -1   1  0 -1   0  0 -1       0 -1  1  -1  0  1   0  0  1
                      -1  0  0  -1  1  0  -1  0  1       1  0  0   1 -1  0   1  0 -1
                       0 -1  1   1 -1  0   0 -1  0       0  1 -1  -1  1  0   0  1  0
                       1  0  0   0  0  1   0  1  0      -1  0  0   0  0 -1   0 -1  0
                       0  1 -1   0  0 -1   1  0 -1       0 -1  1   0  0  1  -1  0  1
                      -1  0  1  -1  1  0  -1  0  0       1  0 -1   1 -1  0   1  0  0
                       0 -1  0   1 -1  0   0 -1  1       0  1  0  -1  1  0   0  1 -1
                       1  0 -1   0  0 -1   0  1 -1      -1  0  1   0  0  1   0 -1  1
                       0  1  0   0  0  1   1  0  0       0 -1  0   0  0 -1  -1  0  0
                       1  0 -1   0  1 -1   0  0 -1      -1  0  1   0 -1  1   0  0  1
                       0 -1  0   0 -1  1   1 -1  0       0  1  0   0  1 -1  -1  1  0
                      -1  0  1  -1  0  0  -1  1  0       1  0 -1   1  0  0   1 -1  0
                       0  1  0   1  0  0   0  0  1       0 -1  0  -1  0  0   0  0 -1
                       0  0 -1   0  1 -1   1  0 -1       0  0  1   0 -1  1  -1  0  1
                       1 -1  0   0 -1  1   0 -1  0      -1  1  0   0  1 -1   0  1  0
                       0  0  1   1  0  0   0  1  0       0  0 -1  -1  0  0   0 -1  0
                      -1  1  0  -1  0  0  -1  0  1       1 -1  0   1  0  0   1  0 -1
                       0  0  1   0  1  0   1  0  0       0  0 -1   0 -1  0  -1  0  0
                       1 -1  0   0 -1  0   0 -1  1      -1  1  0   0  1  0   0  1 -1
                       0  0 -1   1  0 -1   0  1 -1       0  0  1  -1  0  1   0 -1  1
                      -1  1  0  -1  0  1  -1  0  0       1 -1  0   1  0 -1   1  0  0
            tnons      0.0000000  0.0000000  0.0000000     0.2500000  0.2500000  0.2500000
                       0.0000000  0.0000000  0.0000000     0.2500000  0.2500000  0.2500000
                       0.0000000  0.0000000  0.0000000     0.2500000  0.2500000  0.2500000
                       0.0000000  0.0000000  0.0000000     0.2500000  0.2500000  0.2500000
                       0.0000000  0.0000000  0.0000000     0.2500000  0.2500000  0.2500000
                       0.0000000  0.0000000  0.0000000     0.2500000  0.2500000  0.2500000
                       0.0000000  0.0000000  0.0000000     0.2500000  0.2500000  0.2500000
                       0.0000000  0.0000000  0.0000000     0.2500000  0.2500000  0.2500000
                       0.0000000  0.0000000  0.0000000     0.2500000  0.2500000  0.2500000
                       0.0000000  0.0000000  0.0000000     0.2500000  0.2500000  0.2500000
                       0.0000000  0.0000000  0.0000000     0.2500000  0.2500000  0.2500000
                       0.0000000  0.0000000  0.0000000     0.2500000  0.2500000  0.2500000
                       0.0000000  0.0000000  0.0000000     0.2500000  0.2500000  0.2500000
                       0.0000000  0.0000000  0.0000000     0.2500000  0.2500000  0.2500000
                       0.0000000  0.0000000  0.0000000     0.2500000  0.2500000  0.2500000
                       0.0000000  0.0000000  0.0000000     0.2500000  0.2500000  0.2500000
                       0.0000000  0.0000000  0.0000000     0.2500000  0.2500000  0.2500000
                       0.0000000  0.0000000  0.0000000     0.2500000  0.2500000  0.2500000
                       0.0000000  0.0000000  0.0000000     0.2500000  0.2500000  0.2500000
                       0.0000000  0.0000000  0.0000000     0.2500000  0.2500000  0.2500000
                       0.0000000  0.0000000  0.0000000     0.2500000  0.2500000  0.2500000
                       0.0000000  0.0000000  0.0000000     0.2500000  0.2500000  0.2500000
                       0.0000000  0.0000000  0.0000000     0.2500000  0.2500000  0.2500000
                       0.0000000  0.0000000  0.0000000     0.2500000  0.2500000  0.2500000
            typat      1  1
              wtk        0.00463    0.00463    0.00463    0.00463    0.00463    0.00463
                         0.00463    0.00463    0.00463    0.00463    0.00463    0.00463
                         0.00463    0.00463    0.00463    0.00463    0.00463    0.00463
                         0.00463    0.00463    0.00463    0.00463    0.00463    0.00463
                         0.00463    0.00463    0.00463    0.00463    0.00463    0.00463
                         0.00463    0.00463    0.00463    0.00463    0.00463    0.00463
                         0.00463    0.00463    0.00463    0.00463    0.00463    0.00463
                         0.00463    0.00463    0.00463    0.00463    0.00463    0.00463
                         0.00463    0.00463
                       outvars : Printing only first  50 k-points.
           xangst      0.0000000000E+00  0.0000000000E+00  0.0000000000E+00
                       1.3516508850E+00  1.3516508850E+00  1.3516508850E+00
            xcart      0.0000000000E+00  0.0000000000E+00  0.0000000000E+00
                       2.5542500000E+00  2.5542500000E+00  2.5542500000E+00
             xred      0.0000000000E+00  0.0000000000E+00  0.0000000000E+00
                       2.5000000000E-01  2.5000000000E-01  2.5000000000E-01
             zcut      5.51239881E-03 Hartree
            znucl       14.00000

================================================================================

 chkinp: Checking input parameters for consistency.

================================================================================
== DATASET  1 ==================================================================
-   nproc =    2

 Exchange-correlation functional for the present dataset will be:
  LDA: new Teter (4/93) with spin-polarized option - ixc=1
 Citation for XC functional:
  S. Goedecker, M. Teter, J. Huetter, PRB 54, 1703 (1996)

 Exciton: Calculation of dielectric properties by solving the Bethe-Salpeter equation 
 in frequency domain and reciprocal space on a transitions basis set. 
 Based on a program developed by L. Reining, V. Olevano, F. Sottile, 
 S. Albrecht, and G. Onida. Incorporated in ABINIT by M. Giantomassi. 

.Using double precision arithmetic ; gwpc =  8

 Real(R)+Recip(G) space primitive vectors, cartesian coordinates (Bohr,Bohr^-1):
 R(1)=  0.0000000  5.1085000  5.1085000  G(1)= -0.0978761  0.0978761  0.0978761
 R(2)=  5.1085000  0.0000000  5.1085000  G(2)=  0.0978761 -0.0978761  0.0978761
 R(3)=  5.1085000  5.1085000  0.0000000  G(3)=  0.0978761  0.0978761 -0.0978761
 Unit cell volume ucvol=  2.6663072E+02 bohr^3
 Angles (23,13,12)=  6.00000000E+01  6.00000000E+01  6.00000000E+01 degrees

--- Pseudopotential description ------------------------------------------------
- pspini: atom type   1  psp file is /Users/gmatteo/git_repos/abipy/abipy/data/pseudos/14si.pspnc
- pspatm: opening atomic psp file    /Users/gmatteo/git_repos/abipy/abipy/data/pseudos/14si.pspnc
-  Troullier-Martins psp for element  Si        Thu Oct 27 17:31:21 EDT 1994
- 14.00000   4.00000    940714                znucl, zion, pspdat
    1    1    2    2      2001   0.00000      pspcod,pspxc,lmax,lloc,mmax,r2well
    0   5.907  14.692    1   2.0872718        l,e99.0,e99.9,nproj,rcpsp
   0.00000000   0.00000000   0.00000000   0.00000000     rms, ekb1, ekb2, epsatm
    1   2.617   4.181    1   2.0872718        l,e99.0,e99.9,nproj,rcpsp
   0.00000000   0.00000000   0.00000000   0.00000000     rms, ekb1, ekb2, epsatm
    2   0.000   0.000    0   2.0872718        l,e99.0,e99.9,nproj,rcpsp
   0.00000000   0.00000000   0.00000000   0.00000000     rms, ekb1, ekb2, epsatm
    1.80626423934776    0.22824404341771    1.17378968127746   rchrg,fchrg,qchrg
  pspatm : epsatm=    1.43386982
         --- l  ekb(1:nproj) -->
             0    3.287949
             1    1.849886
 pspatm: atomic psp has been read  and splines computed

   2.29419171E+01                                ecore*ucvol(ha*bohr**3)
--------------------------------------------------------------------------------

 ==== K-mesh for the wavefunctions ====
 Number of points in the irreducible wedge :   216
 Reduced coordinates and weights : 

     1)     1.83333333E-02  3.50000000E-02  5.16666667E-02       0.00463
     2)     1.85000000E-01  3.50000000E-02  5.16666667E-02       0.00463
     3)     3.51666667E-01  3.50000000E-02  5.16666667E-02       0.00463
     4)    -4.81666667E-01  3.50000000E-02  5.16666667E-02       0.00463
     5)    -3.15000000E-01  3.50000000E-02  5.16666667E-02       0.00463
     6)    -1.48333333E-01  3.50000000E-02  5.16666667E-02       0.00463
     7)     1.83333333E-02  2.01666667E-01  5.16666667E-02       0.00463
     8)     1.85000000E-01  2.01666667E-01  5.16666667E-02       0.00463
     9)     3.51666667E-01  2.01666667E-01  5.16666667E-02       0.00463
    10)    -4.81666667E-01  2.01666667E-01  5.16666667E-02       0.00463
    11)    -3.15000000E-01  2.01666667E-01  5.16666667E-02       0.00463
    12)    -1.48333333E-01  2.01666667E-01  5.16666667E-02       0.00463
    13)     1.83333333E-02  3.68333333E-01  5.16666667E-02       0.00463
    14)     1.85000000E-01  3.68333333E-01  5.16666667E-02       0.00463
    15)     3.51666667E-01  3.68333333E-01  5.16666667E-02       0.00463
    16)    -4.81666667E-01  3.68333333E-01  5.16666667E-02       0.00463
    17)    -3.15000000E-01  3.68333333E-01  5.16666667E-02       0.00463
    18)    -1.48333333E-01  3.68333333E-01  5.16666667E-02       0.00463
    19)     1.83333333E-02 -4.65000000E-01  5.16666667E-02       0.00463
    20)     1.85000000E-01 -4.65000000E-01  5.16666667E-02       0.00463
    21)     3.51666667E-01 -4.65000000E-01  5.16666667E-02       0.00463
    22)    -4.81666667E-01 -4.65000000E-01  5.16666667E-02       0.00463
    23)    -3.15000000E-01 -4.65000000E-01  5.16666667E-02       0.00463
    24)    -1.48333333E-01 -4.65000000E-01  5.16666667E-02       0.00463
    25)     1.83333333E-02 -2.98333333E-01  5.16666667E-02       0.00463
    26)     1.85000000E-01 -2.98333333E-01  5.16666667E-02       0.00463
    27)     3.51666667E-01 -2.98333333E-01  5.16666667E-02       0.00463
    28)    -4.81666667E-01 -2.98333333E-01  5.16666667E-02       0.00463
    29)    -3.15000000E-01 -2.98333333E-01  5.16666667E-02       0.00463
    30)    -1.48333333E-01 -2.98333333E-01  5.16666667E-02       0.00463
    31)     1.83333333E-02 -1.31666667E-01  5.16666667E-02       0.00463
    32)     1.85000000E-01 -1.31666667E-01  5.16666667E-02       0.00463
    33)     3.51666667E-01 -1.31666667E-01  5.16666667E-02       0.00463
    34)    -4.81666667E-01 -1.31666667E-01  5.16666667E-02       0.00463
    35)    -3.15000000E-01 -1.31666667E-01  5.16666667E-02       0.00463
    36)    -1.48333333E-01 -1.31666667E-01  5.16666667E-02       0.00463
    37)     1.83333333E-02  3.50000000E-02  2.18333333E-01       0.00463
    38)     1.85000000E-01  3.50000000E-02  2.18333333E-01       0.00463
    39)     3.51666667E-01  3.50000000E-02  2.18333333E-01       0.00463
    40)    -4.81666667E-01  3.50000000E-02  2.18333333E-01       0.00463
    41)    -3.15000000E-01  3.50000000E-02  2.18333333E-01       0.00463
    42)    -1.48333333E-01  3.50000000E-02  2.18333333E-01       0.00463
    43)     1.83333333E-02  2.01666667E-01  2.18333333E-01       0.00463
    44)     1.85000000E-01  2.01666667E-01  2.18333333E-01       0.00463
    45)     3.51666667E-01  2.01666667E-01  2.18333333E-01       0.00463
    46)    -4.81666667E-01  2.01666667E-01  2.18333333E-01       0.00463
    47)    -3.15000000E-01  2.01666667E-01  2.18333333E-01       0.00463
    48)    -1.48333333E-01  2.01666667E-01  2.18333333E-01       0.00463
    49)     1.83333333E-02  3.68333333E-01  2.18333333E-01       0.00463
    50)     1.85000000E-01  3.68333333E-01  2.18333333E-01       0.00463
    51)     3.51666667E-01  3.68333333E-01  2.18333333E-01       0.00463
    52)    -4.81666667E-01  3.68333333E-01  2.18333333E-01       0.00463
    53)    -3.15000000E-01  3.68333333E-01  2.18333333E-01       0.00463
    54)    -1.48333333E-01  3.68333333E-01  2.18333333E-01       0.00463
    55)     1.83333333E-02 -4.65000000E-01  2.18333333E-01       0.00463
    56)     1.85000000E-01 -4.65000000E-01  2.18333333E-01       0.00463
    57)     3.51666667E-01 -4.65000000E-01  2.18333333E-01       0.00463
    58)    -4.81666667E-01 -4.65000000E-01  2.18333333E-01       0.00463
    59)    -3.15000000E-01 -4.65000000E-01  2.18333333E-01       0.00463
    60)    -1.48333333E-01 -4.65000000E-01  2.18333333E-01       0.00463
    61)     1.83333333E-02 -2.98333333E-01  2.18333333E-01       0.00463
    62)     1.85000000E-01 -2.98333333E-01  2.18333333E-01       0.00463
    63)     3.51666667E-01 -2.98333333E-01  2.18333333E-01       0.00463
    64)    -4.81666667E-01 -2.98333333E-01  2.18333333E-01       0.00463
    65)    -3.15000000E-01 -2.98333333E-01  2.18333333E-01       0.00463
    66)    -1.48333333E-01 -2.98333333E-01  2.18333333E-01       0.00463
    67)     1.83333333E-02 -1.31666667E-01  2.18333333E-01       0.00463
    68)     1.85000000E-01 -1.31666667E-01  2.18333333E-01       0.00463
    69)     3.51666667E-01 -1.31666667E-01  2.18333333E-01       0.00463
    70)    -4.81666667E-01 -1.31666667E-01  2.18333333E-01       0.00463
    71)    -3.15000000E-01 -1.31666667E-01  2.18333333E-01       0.00463
    72)    -1.48333333E-01 -1.31666667E-01  2.18333333E-01       0.00463
    73)     1.83333333E-02  3.50000000E-02  3.85000000E-01       0.00463
    74)     1.85000000E-01  3.50000000E-02  3.85000000E-01       0.00463
    75)     3.51666667E-01  3.50000000E-02  3.85000000E-01       0.00463
    76)    -4.81666667E-01  3.50000000E-02  3.85000000E-01       0.00463
    77)    -3.15000000E-01  3.50000000E-02  3.85000000E-01       0.00463
    78)    -1.48333333E-01  3.50000000E-02  3.85000000E-01       0.00463
    79)     1.83333333E-02  2.01666667E-01  3.85000000E-01       0.00463
    80)     1.85000000E-01  2.01666667E-01  3.85000000E-01       0.00463
    81)     3.51666667E-01  2.01666667E-01  3.85000000E-01       0.00463
    82)    -4.81666667E-01  2.01666667E-01  3.85000000E-01       0.00463
    83)    -3.15000000E-01  2.01666667E-01  3.85000000E-01       0.00463
    84)    -1.48333333E-01  2.01666667E-01  3.85000000E-01       0.00463
    85)     1.83333333E-02  3.68333333E-01  3.85000000E-01       0.00463
    86)     1.85000000E-01  3.68333333E-01  3.85000000E-01       0.00463
    87)     3.51666667E-01  3.68333333E-01  3.85000000E-01       0.00463
    88)    -4.81666667E-01  3.68333333E-01  3.85000000E-01       0.00463
    89)    -3.15000000E-01  3.68333333E-01  3.85000000E-01       0.00463
    90)    -1.48333333E-01  3.68333333E-01  3.85000000E-01       0.00463
    91)     1.83333333E-02 -4.65000000E-01  3.85000000E-01       0.00463
    92)     1.85000000E-01 -4.65000000E-01  3.85000000E-01       0.00463
    93)     3.51666667E-01 -4.65000000E-01  3.85000000E-01       0.00463
    94)    -4.81666667E-01 -4.65000000E-01  3.85000000E-01       0.00463
    95)    -3.15000000E-01 -4.65000000E-01  3.85000000E-01       0.00463
    96)    -1.48333333E-01 -4.65000000E-01  3.85000000E-01       0.00463
    97)     1.83333333E-02 -2.98333333E-01  3.85000000E-01       0.00463
    98)     1.85000000E-01 -2.98333333E-01  3.85000000E-01       0.00463
    99)     3.51666667E-01 -2.98333333E-01  3.85000000E-01       0.00463
   100)    -4.81666667E-01 -2.98333333E-01  3.85000000E-01       0.00463
   101)    -3.15000000E-01 -2.98333333E-01  3.85000000E-01       0.00463
   102)    -1.48333333E-01 -2.98333333E-01  3.85000000E-01       0.00463
   103)     1.83333333E-02 -1.31666667E-01  3.85000000E-01       0.00463
   104)     1.85000000E-01 -1.31666667E-01  3.85000000E-01       0.00463
   105)     3.51666667E-01 -1.31666667E-01  3.85000000E-01       0.00463
   106)    -4.81666667E-01 -1.31666667E-01  3.85000000E-01       0.00463
   107)    -3.15000000E-01 -1.31666667E-01  3.85000000E-01       0.00463
   108)    -1.48333333E-01 -1.31666667E-01  3.85000000E-01       0.00463
   109)     1.83333333E-02  3.50000000E-02 -4.48333333E-01       0.00463
   110)     1.85000000E-01  3.50000000E-02 -4.48333333E-01       0.00463
   111)     3.51666667E-01  3.50000000E-02 -4.48333333E-01       0.00463
   112)    -4.81666667E-01  3.50000000E-02 -4.48333333E-01       0.00463
   113)    -3.15000000E-01  3.50000000E-02 -4.48333333E-01       0.00463
   114)    -1.48333333E-01  3.50000000E-02 -4.48333333E-01       0.00463
   115)     1.83333333E-02  2.01666667E-01 -4.48333333E-01       0.00463
   116)     1.85000000E-01  2.01666667E-01 -4.48333333E-01       0.00463
   117)     3.51666667E-01  2.01666667E-01 -4.48333333E-01       0.00463
   118)    -4.81666667E-01  2.01666667E-01 -4.48333333E-01       0.00463
   119)    -3.15000000E-01  2.01666667E-01 -4.48333333E-01       0.00463
   120)    -1.48333333E-01  2.01666667E-01 -4.48333333E-01       0.00463
   121)     1.83333333E-02  3.68333333E-01 -4.48333333E-01       0.00463
   122)     1.85000000E-01  3.68333333E-01 -4.48333333E-01       0.00463
   123)     3.51666667E-01  3.68333333E-01 -4.48333333E-01       0.00463
   124)    -4.81666667E-01  3.68333333E-01 -4.48333333E-01       0.00463
   125)    -3.15000000E-01  3.68333333E-01 -4.48333333E-01       0.00463
   126)    -1.48333333E-01  3.68333333E-01 -4.48333333E-01       0.00463
   127)     1.83333333E-02 -4.65000000E-01 -4.48333333E-01       0.00463
   128)     1.85000000E-01 -4.65000000E-01 -4.48333333E-01       0.00463
   129)     3.51666667E-01 -4.65000000E-01 -4.48333333E-01       0.00463
   130)    -4.81666667E-01 -4.65000000E-01 -4.48333333E-01       0.00463
   131)    -3.15000000E-01 -4.65000000E-01 -4.48333333E-01       0.00463
   132)    -1.48333333E-01 -4.65000000E-01 -4.48333333E-01       0.00463
   133)     1.83333333E-02 -2.98333333E-01 -4.48333333E-01       0.00463
   134)     1.85000000E-01 -2.98333333E-01 -4.48333333E-01       0.00463
   135)     3.51666667E-01 -2.98333333E-01 -4.48333333E-01       0.00463
   136)    -4.81666667E-01 -2.98333333E-01 -4.48333333E-01       0.00463
   137)    -3.15000000E-01 -2.98333333E-01 -4.48333333E-01       0.00463
   138)    -1.48333333E-01 -2.98333333E-01 -4.48333333E-01       0.00463
   139)     1.83333333E-02 -1.31666667E-01 -4.48333333E-01       0.00463
   140)     1.85000000E-01 -1.31666667E-01 -4.48333333E-01       0.00463
   141)     3.51666667E-01 -1.31666667E-01 -4.48333333E-01       0.00463
   142)    -4.81666667E-01 -1.31666667E-01 -4.48333333E-01       0.00463
   143)    -3.15000000E-01 -1.31666667E-01 -4.48333333E-01       0.00463
   144)    -1.48333333E-01 -1.31666667E-01 -4.48333333E-01       0.00463
   145)     1.83333333E-02  3.50000000E-02 -2.81666667E-01       0.00463
   146)     1.85000000E-01  3.50000000E-02 -2.81666667E-01       0.00463
   147)     3.51666667E-01  3.50000000E-02 -2.81666667E-01       0.00463
   148)    -4.81666667E-01  3.50000000E-02 -2.81666667E-01       0.00463
   149)    -3.15000000E-01  3.50000000E-02 -2.81666667E-01       0.00463
   150)    -1.48333333E-01  3.50000000E-02 -2.81666667E-01       0.00463
   151)     1.83333333E-02  2.01666667E-01 -2.81666667E-01       0.00463
   152)     1.85000000E-01  2.01666667E-01 -2.81666667E-01       0.00463
   153)     3.51666667E-01  2.01666667E-01 -2.81666667E-01       0.00463
   154)    -4.81666667E-01  2.01666667E-01 -2.81666667E-01       0.00463
   155)    -3.15000000E-01  2.01666667E-01 -2.81666667E-01       0.00463
   156)    -1.48333333E-01  2.01666667E-01 -2.81666667E-01       0.00463
   157)     1.83333333E-02  3.68333333E-01 -2.81666667E-01       0.00463
   158)     1.85000000E-01  3.68333333E-01 -2.81666667E-01       0.00463
   159)     3.51666667E-01  3.68333333E-01 -2.81666667E-01       0.00463
   160)    -4.81666667E-01  3.68333333E-01 -2.81666667E-01       0.00463
   161)    -3.15000000E-01  3.68333333E-01 -2.81666667E-01       0.00463
   162)    -1.48333333E-01  3.68333333E-01 -2.81666667E-01       0.00463
   163)     1.83333333E-02 -4.65000000E-01 -2.81666667E-01       0.00463
   164)     1.85000000E-01 -4.65000000E-01 -2.81666667E-01       0.00463
   165)     3.51666667E-01 -4.65000000E-01 -2.81666667E-01       0.00463
   166)    -4.81666667E-01 -4.65000000E-01 -2.81666667E-01       0.00463
   167)    -3.15000000E-01 -4.65000000E-01 -2.81666667E-01       0.00463
   168)    -1.48333333E-01 -4.65000000E-01 -2.81666667E-01       0.00463
   169)     1.83333333E-02 -2.98333333E-01 -2.81666667E-01       0.00463
   170)     1.85000000E-01 -2.98333333E-01 -2.81666667E-01       0.00463
   171)     3.51666667E-01 -2.98333333E-01 -2.81666667E-01       0.00463
   172)    -4.81666667E-01 -2.98333333E-01 -2.81666667E-01       0.00463
   173)    -3.15000000E-01 -2.98333333E-01 -2.81666667E-01       0.00463
   174)    -1.48333333E-01 -2.98333333E-01 -2.81666667E-01       0.00463
   175)     1.83333333E-02 -1.31666667E-01 -2.81666667E-01       0.00463
   176)     1.85000000E-01 -1.31666667E-01 -2.81666667E-01       0.00463
   177)     3.51666667E-01 -1.31666667E-01 -2.81666667E-01       0.00463
   178)    -4.81666667E-01 -1.31666667E-01 -2.81666667E-01       0.00463
   179)    -3.15000000E-01 -1.31666667E-01 -2.81666667E-01       0.00463
   180)    -1.48333333E-01 -1.31666667E-01 -2.81666667E-01       0.00463
   181)     1.83333333E-02  3.50000000E-02 -1.15000000E-01       0.00463
   182)     1.85000000E-01  3.50000000E-02 -1.15000000E-01       0.00463
   183)     3.51666667E-01  3.50000000E-02 -1.15000000E-01       0.00463
   184)    -4.81666667E-01  3.50000000E-02 -1.15000000E-01       0.00463
   185)    -3.15000000E-01  3.50000000E-02 -1.15000000E-01       0.00463
   186)    -1.48333333E-01  3.50000000E-02 -1.15000000E-01       0.00463
   187)     1.83333333E-02  2.01666667E-01 -1.15000000E-01       0.00463
   188)     1.85000000E-01  2.01666667E-01 -1.15000000E-01       0.00463
   189)     3.51666667E-01  2.01666667E-01 -1.15000000E-01       0.00463
   190)    -4.81666667E-01  2.01666667E-01 -1.15000000E-01       0.00463
   191)    -3.15000000E-01  2.01666667E-01 -1.15000000E-01       0.00463
   192)    -1.48333333E-01  2.01666667E-01 -1.15000000E-01       0.00463
   193)     1.83333333E-02  3.68333333E-01 -1.15000000E-01       0.00463
   194)     1.85000000E-01  3.68333333E-01 -1.15000000E-01       0.00463
   195)     3.51666667E-01  3.68333333E-01 -1.15000000E-01       0.00463
   196)    -4.81666667E-01  3.68333333E-01 -1.15000000E-01       0.00463
   197)    -3.15000000E-01  3.68333333E-01 -1.15000000E-01       0.00463
   198)    -1.48333333E-01  3.68333333E-01 -1.15000000E-01       0.00463
   199)     1.83333333E-02 -4.65000000E-01 -1.15000000E-01       0.00463
   200)     1.85000000E-01 -4.65000000E-01 -1.15000000E-01       0.00463
   201)     3.51666667E-01 -4.65000000E-01 -1.15000000E-01       0.00463
   202)    -4.81666667E-01 -4.65000000E-01 -1.15000000E-01       0.00463
   203)    -3.15000000E-01 -4.65000000E-01 -1.15000000E-01       0.00463
   204)    -1.48333333E-01 -4.65000000E-01 -1.15000000E-01       0.00463
   205)     1.83333333E-02 -2.98333333E-01 -1.15000000E-01       0.00463
   206)     1.85000000E-01 -2.98333333E-01 -1.15000000E-01       0.00463
   207)     3.51666667E-01 -2.98333333E-01 -1.15000000E-01       0.00463
   208)    -4.81666667E-01 -2.98333333E-01 -1.15000000E-01       0.00463
   209)    -3.15000000E-01 -2.98333333E-01 -1.15000000E-01       0.00463
   210)    -1.48333333E-01 -2.98333333E-01 -1.15000000E-01       0.00463
   211)     1.83333333E-02 -1.31666667E-01 -1.15000000E-01       0.00463
   212)     1.85000000E-01 -1.31666667E-01 -1.15000000E-01       0.00463
   213)     3.51666667E-01 -1.31666667E-01 -1.15000000E-01       0.00463
   214)    -4.81666667E-01 -1.31666667E-01 -1.15000000E-01       0.00463
   215)    -3.15000000E-01 -1.31666667E-01 -1.15000000E-01       0.00463
   216)    -1.48333333E-01 -1.31666667E-01 -1.15000000E-01       0.00463

 Together with 48 symmetry operations and time-reversal symmetry 
 yields   216 points in the full Brillouin Zone.


 ==== Q-mesh for the screening function ====
 Number of points in the irreducible wedge :    16
 Reduced coordinates and weights : 

     1)     0.00000000E+00  0.00000000E+00  0.00000000E+00       0.00463
     2)     1.66666667E-01  0.00000000E+00  0.00000000E+00       0.03704
     3)     3.33333333E-01  0.00000000E+00  0.00000000E+00       0.03704
     4)     5.00000000E-01  0.00000000E+00  0.00000000E+00       0.01852
     5)     1.66666667E-01  1.66666667E-01  0.00000000E+00       0.02778
     6)     3.33333333E-01  1.66666667E-01  0.00000000E+00       0.11111
     7)     5.00000000E-01  1.66666667E-01  0.00000000E+00       0.11111
     8)    -3.33333333E-01  1.66666667E-01  0.00000000E+00       0.11111
     9)    -1.66666667E-01  1.66666667E-01  0.00000000E+00       0.05556
    10)     3.33333333E-01  3.33333333E-01  0.00000000E+00       0.02778
    11)     5.00000000E-01  3.33333333E-01  0.00000000E+00       0.11111
    12)    -3.33333333E-01  3.33333333E-01  0.00000000E+00       0.05556
    13)     5.00000000E-01  5.00000000E-01  0.00000000E+00       0.01389
    14)     5.00000000E-01  3.33333333E-01  1.66666667E-01       0.11111
    15)    -3.33333333E-01  3.33333333E-01  1.66666667E-01       0.11111
    16)    -3.33333333E-01  5.00000000E-01  1.66666667E-01       0.05556

 Together with 48 symmetry operations and time-reversal symmetry 
 yields   216 points in the full Brillouin Zone.


 setmesh: FFT mesh size selected  =  12x 12x 12
          total number of points  =     1728

 ==== Fundamental parameters for the solution of the Bethe-Salpeter equation: ====
 Algorithm: Haydock technique.
 Dimension of the v, W matrices,  npweps  = 59
 Cutoff for the wavefunctions,    npwwfn  = 137
 Number of k-points in the IBZ,   nkibz   = 216
 Highest empty band included,     nband   = 6
 === Spin UP ===
 Number of resonant transitions          1296
 Lowest occupied state                   2
 Highest occupied state                  4
 Lowest unoccupied state                 5
 Highest unoccupied state                6
 Minimum frequency [eV]           Emin    =   0.00
 Maximum frequency [eV]           Emax    =   6.00
 Frequency step [eV]              dE      =   0.02
 Lorentzian broadening [eV]       eta     =   0.15
 RPA L0 with KS energies and KS wavefunctions
 Scissors operator energy [eV] =          0.80
 Local fields effects (v term) included
 Excitonic effects (W term) included
 Full W_GG' included
 W is approximated with the model dielectric function
 Resonant-only calculation (Hermitian case)


 Calculating epsilon_Macro(q-->0,w), along the following directions:
 q = (  0.938821  0.000000  0.000000) [r.l.u.]
 q = (  0.000000  0.938821  0.000000) [r.l.u.]
 q = (  0.000000  0.000000  0.938821) [r.l.u.]
 q = (  0.000000  0.813043  0.813043) [r.l.u.]
 q = (  0.813043  0.000000  0.813043) [r.l.u.]
 q = (  0.813043  0.813043  0.000000) [r.l.u.]
 Number of electrons calculated from density =    7.9981; Expected =    8.0000
 average of density, n =  0.029997
 r_s =    1.9965
 omega_plasma =   16.7069 [eV]

. Writing resonant excitonic Hamiltonian on file /Users/gmatteo/git_repos/abitutorials/abitutorials/bse/flow_bse_kconv/w1/t2/outdata/out_BSR; file size=   0.01 [Gb].
 Writing KS-RPA macroscopic dielectric function without local fields to file: /Users/gmatteo/git_repos/abitutorials/abitutorials/bse/flow_bse_kconv/w1/t2/outdata/out_RPA_NLF_MDF
 Writing GW-RPA macroscopic dielectric function without local fields to file: /Users/gmatteo/git_repos/abitutorials/abitutorials/bse/flow_bse_kconv/w1/t2/outdata/out_GW_NLF_MDF
 >>> Haydock algorithm converged twice within haydock_tol=   2.00E-02 after 69 iterations.
 >>> Haydock algorithm converged twice within haydock_tol=   2.00E-02 after 62 iterations.
 >>> Haydock algorithm converged twice within haydock_tol=   2.00E-02 after 64 iterations.
 >>> Haydock algorithm converged twice within haydock_tol=   2.00E-02 after 65 iterations.
 >>> Haydock algorithm converged twice within haydock_tol=   2.00E-02 after 62 iterations.
 >>> Haydock algorithm converged twice within haydock_tol=   2.00E-02 after 64 iterations.
 Writing EXC Macroscopic dielectric function to file: /Users/gmatteo/git_repos/abitutorials/abitutorials/bse/flow_bse_kconv/w1/t2/outdata/out_EXC_MDF
  
 Macroscopic dielectric function:
 omega [eV] <KS_RPA_nlf>  <GW_RPA_nlf>  <BSE> 
   0.0000  13.8566   0.0000  11.5256   0.0000  12.5432   0.0000
   0.0200  13.8570   0.0062  11.5258   0.0033  12.5435   0.0044
   0.0400  13.8582   0.0125  11.5265   0.0066  12.5444   0.0088
   0.0600  13.8603   0.0187  11.5276   0.0099  12.5458   0.0132
   0.0800  13.8632   0.0250  11.5291   0.0132  12.5479   0.0176
   0.1000  13.8669   0.0313  11.5311   0.0166  12.5505   0.0220
   0.1200  13.8715   0.0376  11.5335   0.0199  12.5537   0.0264
   0.1400  13.8769   0.0439  11.5364   0.0232  12.5575   0.0308
   0.1600  13.8831   0.0502  11.5397   0.0265  12.5618   0.0352
   0.1800  13.8901   0.0565  11.5434   0.0299  12.5668   0.0397
  

== END DATASET(S) ==============================================================
================================================================================
  
 -outvars: echo values of variables after computation  --------
            acell      1.0000000000E+00  1.0000000000E+00  1.0000000000E+00 Bohr
              amu      2.80855000E+01
  bs_coulomb_term          21
     bs_freq_mesh      0.00000000E+00  2.20495952E-01  7.34986508E-04 Hartree
        bs_loband           2
      chksymbreak           0
           diemac      1.20000000E+01
             ecut      5.10559920E+00 Hartree
          ecuteps      2.26915520E+00 Hartree
          ecutwfn      5.10559920E+00 Hartree
           etotal      0.0000000000E+00
            fcart      0.0000000000E+00  0.0000000000E+00  0.0000000000E+00
                       0.0000000000E+00  0.0000000000E+00  0.0000000000E+00
-          fftalg         112
           irdwfk           1
              kpt      1.83333333E-02  3.50000000E-02  5.16666667E-02
                       1.85000000E-01  3.50000000E-02  5.16666667E-02
                       3.51666667E-01  3.50000000E-02  5.16666667E-02
                      -4.81666667E-01  3.50000000E-02  5.16666667E-02
                      -3.15000000E-01  3.50000000E-02  5.16666667E-02
                      -1.48333333E-01  3.50000000E-02  5.16666667E-02
                       1.83333333E-02  2.01666667E-01  5.16666667E-02
                       1.85000000E-01  2.01666667E-01  5.16666667E-02
                       3.51666667E-01  2.01666667E-01  5.16666667E-02
                      -4.81666667E-01  2.01666667E-01  5.16666667E-02
                      -3.15000000E-01  2.01666667E-01  5.16666667E-02
                      -1.48333333E-01  2.01666667E-01  5.16666667E-02
                       1.83333333E-02  3.68333333E-01  5.16666667E-02
                       1.85000000E-01  3.68333333E-01  5.16666667E-02
                       3.51666667E-01  3.68333333E-01  5.16666667E-02
                      -4.81666667E-01  3.68333333E-01  5.16666667E-02
                      -3.15000000E-01  3.68333333E-01  5.16666667E-02
                      -1.48333333E-01  3.68333333E-01  5.16666667E-02
                       1.83333333E-02 -4.65000000E-01  5.16666667E-02
                       1.85000000E-01 -4.65000000E-01  5.16666667E-02
                       3.51666667E-01 -4.65000000E-01  5.16666667E-02
                      -4.81666667E-01 -4.65000000E-01  5.16666667E-02
                      -3.15000000E-01 -4.65000000E-01  5.16666667E-02
                      -1.48333333E-01 -4.65000000E-01  5.16666667E-02
                       1.83333333E-02 -2.98333333E-01  5.16666667E-02
                       1.85000000E-01 -2.98333333E-01  5.16666667E-02
                       3.51666667E-01 -2.98333333E-01  5.16666667E-02
                      -4.81666667E-01 -2.98333333E-01  5.16666667E-02
                      -3.15000000E-01 -2.98333333E-01  5.16666667E-02
                      -1.48333333E-01 -2.98333333E-01  5.16666667E-02
                       1.83333333E-02 -1.31666667E-01  5.16666667E-02
                       1.85000000E-01 -1.31666667E-01  5.16666667E-02
                       3.51666667E-01 -1.31666667E-01  5.16666667E-02
                      -4.81666667E-01 -1.31666667E-01  5.16666667E-02
                      -3.15000000E-01 -1.31666667E-01  5.16666667E-02
                      -1.48333333E-01 -1.31666667E-01  5.16666667E-02
                       1.83333333E-02  3.50000000E-02  2.18333333E-01
                       1.85000000E-01  3.50000000E-02  2.18333333E-01
                       3.51666667E-01  3.50000000E-02  2.18333333E-01
                      -4.81666667E-01  3.50000000E-02  2.18333333E-01
                      -3.15000000E-01  3.50000000E-02  2.18333333E-01
                      -1.48333333E-01  3.50000000E-02  2.18333333E-01
                       1.83333333E-02  2.01666667E-01  2.18333333E-01
                       1.85000000E-01  2.01666667E-01  2.18333333E-01
                       3.51666667E-01  2.01666667E-01  2.18333333E-01
                      -4.81666667E-01  2.01666667E-01  2.18333333E-01
                      -3.15000000E-01  2.01666667E-01  2.18333333E-01
                      -1.48333333E-01  2.01666667E-01  2.18333333E-01
                       1.83333333E-02  3.68333333E-01  2.18333333E-01
                       1.85000000E-01  3.68333333E-01  2.18333333E-01
                       outvar_i_n : Printing only first  50 k-points.
         kptrlatt        6    0    0      0    6    0      0    0    6
          kptrlen      4.33470599E+01
       mbpt_sciss      2.93994603E-02 Hartree
       mdf_epsinf      1.20000000E+01
P           mkmem         108
            natom           2
            nband           6
            ngfft          16      16      16
             nkpt         216
           npweps          59
           npwwfn         169
             nsym          48
           ntypat           1
              occ      2.000000  2.000000  2.000000  2.000000  0.000000  0.000000
        optdriver          99
            rprim      0.0000000000E+00  5.1085000000E+00  5.1085000000E+00
                       5.1085000000E+00  0.0000000000E+00  5.1085000000E+00
                       5.1085000000E+00  5.1085000000E+00  0.0000000000E+00
           shiftk      1.10000000E-01  2.10000000E-01  3.10000000E-01
          spgroup         227
           strten      0.0000000000E+00  0.0000000000E+00  0.0000000000E+00
                       0.0000000000E+00  0.0000000000E+00  0.0000000000E+00
           symrel      1  0  0   0  1  0   0  0  1      -1  0  0   0 -1  0   0  0 -1
                       0 -1  1   0 -1  0   1 -1  0       0  1 -1   0  1  0  -1  1  0
                      -1  0  0  -1  0  1  -1  1  0       1  0  0   1  0 -1   1 -1  0
                       0  1 -1   1  0 -1   0  0 -1       0 -1  1  -1  0  1   0  0  1
                      -1  0  0  -1  1  0  -1  0  1       1  0  0   1 -1  0   1  0 -1
                       0 -1  1   1 -1  0   0 -1  0       0  1 -1  -1  1  0   0  1  0
                       1  0  0   0  0  1   0  1  0      -1  0  0   0  0 -1   0 -1  0
                       0  1 -1   0  0 -1   1  0 -1       0 -1  1   0  0  1  -1  0  1
                      -1  0  1  -1  1  0  -1  0  0       1  0 -1   1 -1  0   1  0  0
                       0 -1  0   1 -1  0   0 -1  1       0  1  0  -1  1  0   0  1 -1
                       1  0 -1   0  0 -1   0  1 -1      -1  0  1   0  0  1   0 -1  1
                       0  1  0   0  0  1   1  0  0       0 -1  0   0  0 -1  -1  0  0
                       1  0 -1   0  1 -1   0  0 -1      -1  0  1   0 -1  1   0  0  1
                       0 -1  0   0 -1  1   1 -1  0       0  1  0   0  1 -1  -1  1  0
                      -1  0  1  -1  0  0  -1  1  0       1  0 -1   1  0  0   1 -1  0
                       0  1  0   1  0  0   0  0  1       0 -1  0  -1  0  0   0  0 -1
                       0  0 -1   0  1 -1   1  0 -1       0  0  1   0 -1  1  -1  0  1
                       1 -1  0   0 -1  1   0 -1  0      -1  1  0   0  1 -1   0  1  0
                       0  0  1   1  0  0   0  1  0       0  0 -1  -1  0  0   0 -1  0
                      -1  1  0  -1  0  0  -1  0  1       1 -1  0   1  0  0   1  0 -1
                       0  0  1   0  1  0   1  0  0       0  0 -1   0 -1  0  -1  0  0
                       1 -1  0   0 -1  0   0 -1  1      -1  1  0   0  1  0   0  1 -1
                       0  0 -1   1  0 -1   0  1 -1       0  0  1  -1  0  1   0 -1  1
                      -1  1  0  -1  0  1  -1  0  0       1 -1  0   1  0 -1   1  0  0
            tnons      0.0000000  0.0000000  0.0000000     0.2500000  0.2500000  0.2500000
                       0.0000000  0.0000000  0.0000000     0.2500000  0.2500000  0.2500000
                       0.0000000  0.0000000  0.0000000     0.2500000  0.2500000  0.2500000
                       0.0000000  0.0000000  0.0000000     0.2500000  0.2500000  0.2500000
                       0.0000000  0.0000000  0.0000000     0.2500000  0.2500000  0.2500000
                       0.0000000  0.0000000  0.0000000     0.2500000  0.2500000  0.2500000
                       0.0000000  0.0000000  0.0000000     0.2500000  0.2500000  0.2500000
                       0.0000000  0.0000000  0.0000000     0.2500000  0.2500000  0.2500000
                       0.0000000  0.0000000  0.0000000     0.2500000  0.2500000  0.2500000
                       0.0000000  0.0000000  0.0000000     0.2500000  0.2500000  0.2500000
                       0.0000000  0.0000000  0.0000000     0.2500000  0.2500000  0.2500000
                       0.0000000  0.0000000  0.0000000     0.2500000  0.2500000  0.2500000
                       0.0000000  0.0000000  0.0000000     0.2500000  0.2500000  0.2500000
                       0.0000000  0.0000000  0.0000000     0.2500000  0.2500000  0.2500000
                       0.0000000  0.0000000  0.0000000     0.2500000  0.2500000  0.2500000
                       0.0000000  0.0000000  0.0000000     0.2500000  0.2500000  0.2500000
                       0.0000000  0.0000000  0.0000000     0.2500000  0.2500000  0.2500000
                       0.0000000  0.0000000  0.0000000     0.2500000  0.2500000  0.2500000
                       0.0000000  0.0000000  0.0000000     0.2500000  0.2500000  0.2500000
                       0.0000000  0.0000000  0.0000000     0.2500000  0.2500000  0.2500000
                       0.0000000  0.0000000  0.0000000     0.2500000  0.2500000  0.2500000
                       0.0000000  0.0000000  0.0000000     0.2500000  0.2500000  0.2500000
                       0.0000000  0.0000000  0.0000000     0.2500000  0.2500000  0.2500000
                       0.0000000  0.0000000  0.0000000     0.2500000  0.2500000  0.2500000
            typat      1  1
              wtk        0.00463    0.00463    0.00463    0.00463    0.00463    0.00463
                         0.00463    0.00463    0.00463    0.00463    0.00463    0.00463
                         0.00463    0.00463    0.00463    0.00463    0.00463    0.00463
                         0.00463    0.00463    0.00463    0.00463    0.00463    0.00463
                         0.00463    0.00463    0.00463    0.00463    0.00463    0.00463
                         0.00463    0.00463    0.00463    0.00463    0.00463    0.00463
                         0.00463    0.00463    0.00463    0.00463    0.00463    0.00463
                         0.00463    0.00463    0.00463    0.00463    0.00463    0.00463
                         0.00463    0.00463
                       outvars : Printing only first  50 k-points.
           xangst      0.0000000000E+00  0.0000000000E+00  0.0000000000E+00
                       1.3516508850E+00  1.3516508850E+00  1.3516508850E+00
            xcart      0.0000000000E+00  0.0000000000E+00  0.0000000000E+00
                       2.5542500000E+00  2.5542500000E+00  2.5542500000E+00
             xred      0.0000000000E+00  0.0000000000E+00  0.0000000000E+00
                       2.5000000000E-01  2.5000000000E-01  2.5000000000E-01
             zcut      5.51239881E-03 Hartree
            znucl       14.00000

================================================================================


- Timing analysis has been suppressed with timopt=0



================================================================================

 Suggested references for the acknowledgment of ABINIT usage.

 The users of ABINIT have little formal obligations with respect to the ABINIT group
 (those specified in the GNU General Public License, http://www.gnu.org/copyleft/gpl.txt).
 However, it is common practice in the scientific literature,
 to acknowledge the efforts of people that have made the research possible.
 In this spirit, please find below suggested citations of work written by ABINIT developers,
 corresponding to implementations inside of ABINIT that you have used in the present run.
 Note also that it will be of great value to readers of publications presenting these results,
 to read papers enabling them to understand the theoretical formalism and details
 of the ABINIT implementation.
 For information on why they are suggested, see also http://www.abinit.org/about/?text=acknowledgments.
-
- [1] Recent developments in the ABINIT software package.
- Computer Phys. Comm. 205, 106 (2016).
- X.Gonze, F.Jollet, F.Abreu Araujo, D.Adams, B.Amadon, T.Applencourt,
- C.Audouze, J.-M.Beuken, J.Bieder, A.Bokhanchuk, E.Bousquet, F.Bruneval
- D.Caliste, M.Cote, F.Dahm, F.Da Pieve, M.Delaveau, M.Di Gennaro,
- B.Dorado, C.Espejo, G.Geneste, L.Genovese, A.Gerossier, M.Giantomassi,
- Y.Gillet, D.R.Hamann, L.He, G.Jomard, J.Laflamme Janssen, S.Le Roux,
- A.Levitt, A.Lherbier, F.Liu, I.Lukacevic, A.Martin, C.Martins,
- M.J.T.Oliveira, S.Ponce, Y.Pouillon, T.Rangel, G.-M.Rignanese,
- A.H.Romero, B.Rousseau, O.Rubel, A.A.Shukri, M.Stankovski, M.Torrent,
- M.J.Van Setten, B.Van Troeye, M.J.Verstraete, D.Waroquier, J.Wiktor,
- B.Xue, A.Zhou, J.W.Zwanziger.
- Comment : the fourth generic paper describing the ABINIT project.
- Note that a version of this paper, that is not formatted for Computer Phys. Comm. 
- is available at http://www.abinit.org/about/ABINIT16.pdf .
- The licence allows the authors to put it on the Web.
-
- [2] ABINIT : First-principles approach of materials and nanosystem properties.
- Computer Phys. Comm. 180, 2582-2615 (2009).
- X. Gonze, B. Amadon, P.-M. Anglade, J.-M. Beuken, F. Bottin, P. Boulanger, F. Bruneval,
- D. Caliste, R. Caracas, M. Cote, T. Deutsch, L. Genovese, Ph. Ghosez, M. Giantomassi
- S. Goedecker, D.R. Hamann, P. Hermet, F. Jollet, G. Jomard, S. Leroux, M. Mancini, S. Mazevet,
- M.J.T. Oliveira, G. Onida, Y. Pouillon, T. Rangel, G.-M. Rignanese, D. Sangalli, R. Shaltaf,
- M. Torrent, M.J. Verstraete, G. Zerah, J.W. Zwanziger
- Comment : the third generic paper describing the ABINIT project.
- Note that a version of this paper, that is not formatted for Computer Phys. Comm. 
- is available at http://www.abinit.org/about/ABINIT_CPC_v10.pdf .
- The licence allows the authors to put it on the Web.
-
- [3] A brief introduction to the ABINIT software package.
- Z. Kristallogr. 220, 558-562 (2005).
- X. Gonze, G.-M. Rignanese, M. Verstraete, J.-M. Beuken, Y. Pouillon, R. Caracas, F. Jollet,
- M. Torrent, G. Zerah, M. Mikami, Ph. Ghosez, M. Veithen, J.-Y. Raty, V. Olevano, F. Bruneval,
- L. Reining, R. Godby, G. Onida, D.R. Hamann, and D.C. Allan.
- Comment : the second generic paper describing the ABINIT project. Note that this paper
- should be cited especially if you are using the GW part of ABINIT, as several authors
- of this part are not in the list of authors of the first or third paper.
- The .pdf of the latter paper is available at http://www.abinit.org/about/zfk_0505-06_558-562.pdf.
- Note that it should not redistributed (Copyright by Oldenburg Wissenshaftverlag,
- the licence allows the authors to put it on the Web).
-
- And optionally:
-
- [4] First-principles computation of material properties : the ABINIT software project. 
- X. Gonze, J.-M. Beuken, R. Caracas, F. Detraux, M. Fuchs, G.-M. Rignanese, L. Sindic,
- M. Verstraete, G. Zerah, F. Jollet, M. Torrent, A. Roy, M. Mikami, Ph. Ghosez, J.-Y. Raty, D.C. Allan.
- Computational Materials Science 25, 478-492 (2002). http://dx.doi.org/10.1016/S0927-0256(02)00325-7
- Comment : the original paper describing the ABINIT project.
-
- Proc.   0 individual time (sec): cpu=         53.9  wall=         63.2

================================================================================

 Calculation completed.
.Delivered   0 WARNINGs and   0 COMMENTs to log file.
+Overall time at end (sec) : cpu=        107.7  wall=        126.4
