
.Version 8.9.3 of ABINIT 
.(MPI version, prepared for a x86_64_darwin16.7.0_gnu4.8 computer) 

.Copyright (C) 1998-2018 ABINIT group . 
 ABINIT comes with ABSOLUTELY NO WARRANTY.
 It is free software, and you are welcome to redistribute it
 under certain conditions (GNU General Public License,
 see ~abinit/COPYING or http://www.gnu.org/copyleft/gpl.txt).

 ABINIT is a project of the Universite Catholique de Louvain,
 Corning Inc. and other collaborators, see ~abinit/doc/developers/contributors.txt .
 Please read https://docs.abinit.org/theory/acknowledgments for suggested
 acknowledgments of the ABINIT effort.
 For more information, see https://www.abinit.org .

.Starting date : Mon 13 Aug 2018.
- ( at 17h50 )
  
- input  file    -> /Users/gmatteo/git_repos/abitutorials/abitutorials/elastic/flow_elastic_ngkpt_conv/w0/t4/run.abi
- output file    -> /Users/gmatteo/git_repos/abitutorials/abitutorials/elastic/flow_elastic_ngkpt_conv/w0/t4/run.abo
- root for input  files -> /Users/gmatteo/git_repos/abitutorials/abitutorials/elastic/flow_elastic_ngkpt_conv/w0/t4/indata/in
- root for output files -> /Users/gmatteo/git_repos/abitutorials/abitutorials/elastic/flow_elastic_ngkpt_conv/w0/t4/outdata/out


 Symmetries : space group P6_3 m c (#186); Bravais hP (primitive hexag.)
================================================================================
 Values of the parameters that define the memory need of the present run (RF).
     intxc =       0      iscf =       7    lmnmax =       2     lnmax =       2
     mgfft =      30  mpssoang =       3    mqgrid =    3001     natom =       4
  nloc_mem =       1    nspden =       1   nspinor =       1    nsppol =       1
      nsym =      12    n1xccc =    2501    ntypat =       2    occopt =       1
   xclevel =       1
-    mband =           8        mffmem =           1         mkmem =           2
-   mkqmem =           2        mk1mem =           2           mpw =         432
      nfft =        9720          nkpt =           4
================================================================================
P This job should need less than                       3.292 Mbytes of memory.
  Rough estimation (10% accuracy) of disk space for files :
_ WF disk file :      0.213 Mbytes ; DEN or POT disk file :      0.076 Mbytes.
================================================================================

--------------------------------------------------------------------------------
------------- Echo of variables that govern the present computation ------------
--------------------------------------------------------------------------------
-
- outvars: echo of selected default values                                      
-   iomode0 =  0 , fftalg0 =112 , wfoptalg0 =  0
-
- outvars: echo of global parameters not present in the input file              
-  max_nthreads =    0
-
 -outvars: echo values of preprocessed input variables --------
            acell      1.0000000000E+00  1.0000000000E+00  1.0000000000E+00 Bohr
              amu      2.69815390E+01  7.49215900E+01
           diemac      9.00000000E+00
             ecut      6.00000000E+00 Hartree
           ecutsm      5.00000000E-01 Hartree
-          fftalg         112
           irdddk           1
           irdwfk           1
              kpt      0.00000000E+00  0.00000000E+00  2.50000000E-01
                       5.00000000E-01  0.00000000E+00  2.50000000E-01
                       0.00000000E+00  5.00000000E-01  2.50000000E-01
                       5.00000000E-01  5.00000000E-01  2.50000000E-01
           kptopt           2
         kptrlatt        2    0    0      0    2    0      0    0    2
          kptrlen      1.50779296E+01
P           mkmem           2
P          mkqmem           2
P          mk1mem           2
            natom           4
            nband           8
            ngfft          18      18      30
             nkpt           4
             nqpt           1
            nstep          40
             nsym          12
           ntypat           2
              occ      2.000000  2.000000  2.000000  2.000000  2.000000  2.000000
                       2.000000  2.000000
        optdriver           1
            rfdir           1       0       0
           rfphon           1
            rprim      6.5289350475E+00  3.7694824072E+00  0.0000000000E+00
                      -6.5289350475E+00  3.7694824072E+00  0.0000000000E+00
                       0.0000000000E+00  0.0000000000E+00  1.2277795374E+01
           shiftk      0.00000000E+00  0.00000000E+00  5.00000000E-01
          spgroup         186
           symrel      1  0  0   0  1  0   0  0  1       0  1  0   1  0  0   0  0  1
                       1  1  0  -1  0  0   0  0  1      -1  0  0   1  1  0   0  0  1
                       0  1  0  -1 -1  0   0  0  1      -1 -1  0   0  1  0   0  0  1
                      -1  0  0   0 -1  0   0  0  1       0 -1  0  -1  0  0   0  0  1
                      -1 -1  0   1  0  0   0  0  1       1  0  0  -1 -1  0   0  0  1
                       0 -1  0   1  1  0   0  0  1       1  1  0   0 -1  0   0  0  1
            tnons      0.0000000  0.0000000  0.0000000     0.0000000  0.0000000  0.5000000
                       0.0000000  0.0000000  0.5000000    -0.0000000  0.0000000  0.0000000
                       0.0000000  0.0000000  0.0000000     0.0000000 -0.0000000  0.5000000
                       0.0000000  0.0000000  0.5000000     0.0000000  0.0000000  0.0000000
                      -0.0000000  0.0000000  0.0000000     0.0000000  0.0000000  0.5000000
                       0.0000000 -0.0000000  0.5000000     0.0000000  0.0000000  0.0000000
           tolvrs      1.00000000E-12
            typat      1  1  2  2
              wtk        0.25000    0.25000    0.25000    0.25000
           xangst     -1.1516545414E+00  1.9947241781E+00  0.0000000000E+00
                       1.1516545414E+00  1.9947241781E+00  3.2485647418E+00
                      -1.1516545414E+00  1.9947241781E+00  2.4434786834E+00
                       1.1516545414E+00  1.9947241781E+00  5.6920434252E+00
            xcart     -2.1763116829E+00  3.7694824072E+00  0.0000000000E+00
                       2.1763116829E+00  3.7694824072E+00  6.1388976870E+00
                      -2.1763116829E+00  3.7694824072E+00  4.6175055231E+00
                       2.1763116829E+00  3.7694824072E+00  1.0756403210E+01
             xred      3.3333333330E-01  6.6666666670E-01  0.0000000000E+00
                       6.6666666670E-01  3.3333333330E-01  5.0000000000E-01
                       3.3333333330E-01  6.6666666670E-01  3.7608588370E-01
                       6.6666666670E-01  3.3333333330E-01  8.7608588370E-01
            znucl       13.00000   33.00000

================================================================================

 chkinp: Checking input parameters for consistency.

================================================================================
== DATASET  1 ==================================================================
-   nproc =    2

 Exchange-correlation functional for the present dataset will be:
  LDA: new Teter (4/93) with spin-polarized option - ixc=1
 Citation for XC functional:
  S. Goedecker, M. Teter, J. Huetter, PRB 54, 1703 (1996)

 Real(R)+Recip(G) space primitive vectors, cartesian coordinates (Bohr,Bohr^-1):
 R(1)=  6.5289350  3.7694824  0.0000000  G(1)=  0.0765822  0.1326442  0.0000000
 R(2)= -6.5289350  3.7694824  0.0000000  G(2)= -0.0765822  0.1326442  0.0000000
 R(3)=  0.0000000  0.0000000 12.2777954  G(3)=  0.0000000  0.0000000  0.0814478
 Unit cell volume ucvol=  6.0433042E+02 bohr^3
 Angles (23,13,12)=  9.00000000E+01  9.00000000E+01  1.20000000E+02 degrees
 setup1 : take into account q-point for computing boxcut.

 getcut: wavevector=  0.0000  0.0000  0.0000  ngfft=  18  18  30
         ecut(hartree)=      6.000   => boxcut(ratio)=   2.16976

--- Pseudopotential description ------------------------------------------------
- pspini: atom type   1  psp file is /Users/gmatteo/git_repos/abipy/abipy/data/pseudos/13al.pspnc
- pspatm: opening atomic psp file    /Users/gmatteo/git_repos/abipy/abipy/data/pseudos/13al.pspnc
-  Troullier-Martins psp for element  Al        Thu Oct 27 17:31:05 EDT 1994
- 13.00000   3.00000    940714                znucl, zion, pspdat
    1    1    2    2      2001   0.00000      pspcod,pspxc,lmax,lloc,mmax,r2well
    0   4.657  11.889    1   2.2761078        l,e99.0,e99.9,nproj,rcpsp
   0.00000000   0.00000000   0.00000000   0.00000000     rms, ekb1, ekb2, epsatm
    1   1.829   2.761    1   2.2761078        l,e99.0,e99.9,nproj,rcpsp
   0.00000000   0.00000000   0.00000000   0.00000000     rms, ekb1, ekb2, epsatm
    2   0.000   0.000    0   2.2761078        l,e99.0,e99.9,nproj,rcpsp
   0.00000000   0.00000000   0.00000000   0.00000000     rms, ekb1, ekb2, epsatm
    2.09673076353074    0.12648111154518    1.01742091001718   rchrg,fchrg,qchrg
  pspatm : epsatm=    0.22155260
         --- l  ekb(1:nproj) -->
             0    2.540658
             1    1.353815
 pspatm: atomic psp has been read  and splines computed

- pspini: atom type   2  psp file is /Users/gmatteo/git_repos/abipy/abipy/data/pseudos/33as.pspnc
- pspatm: opening atomic psp file    /Users/gmatteo/git_repos/abipy/abipy/data/pseudos/33as.pspnc
-  Troullier-Martins psp for element  As        Thu Oct 27 17:37:14 EDT 1994
- 33.00000   5.00000    940714                znucl, zion, pspdat
    1    1    1    1      2001   0.00000      pspcod,pspxc,lmax,lloc,mmax,r2well
    0   4.772  10.829    1   2.5306160        l,e99.0,e99.9,nproj,rcpsp
   0.00000000   0.00000000   0.00000000   0.00000000     rms, ekb1, ekb2, epsatm
    1   2.745   5.580    0   2.5306160        l,e99.0,e99.9,nproj,rcpsp
   0.00000000   0.00000000   0.00000000   0.00000000     rms, ekb1, ekb2, epsatm
    2.05731715564010    0.36322996461007    2.76014815959125   rchrg,fchrg,qchrg
  pspatm : epsatm=   27.20579911
         --- l  ekb(1:nproj) -->
             0    0.838751
 pspatm: atomic psp has been read  and splines computed

   8.77675255E+02                                ecore*ucvol(ha*bohr**3)
--------------------------------------------------------------------------------

-inwffil : will read wavefunctions from disk file /Users/gmatteo/git_repos/abitutorials/abitutorials/elastic/flow_elastic_ngkpt_conv/w0/t4/indata/in_WFK

 ==>  initialize data related to q vector <== 

 The list of irreducible perturbations for this q vector is:
    1)    idir= 1    ipert=   1

================================================================================

--------------------------------------------------------------------------------
 Perturbation wavevector (in red.coord.)   0.000000  0.000000  0.000000
 Perturbation : displacement of atom   1   along direction   1
 The set of symmetries contains only one element for this perturbation.
 symkpt : not enough symmetry to change the number of k points.

--------------------------------------------------------------------------------

-inwffil : will read wavefunctions from disk file /Users/gmatteo/git_repos/abitutorials/abitutorials/elastic/flow_elastic_ngkpt_conv/w0/t4/indata/in_WFK
--------------------------------------------------------------------------------

 Initialisation of the first-order wave-functions :
  ireadwf=   0

     iter   2DEtotal(Ha)        deltaE(Ha) residm    vres2
-ETOT  1   8.2712305922101     -1.786E+01 1.208E-02 8.896E+02
 ETOT  2   5.7945756887961     -2.477E+00 8.106E-04 9.982E+00
 ETOT  3   5.7592537886423     -3.532E-02 3.405E-05 5.233E-01
 ETOT  4   5.7579564950478     -1.297E-03 3.298E-07 1.361E-02
 ETOT  5   5.7579349743028     -2.152E-05 8.754E-09 8.956E-05
 ETOT  6   5.7579348650521     -1.093E-07 1.440E-10 1.832E-06
 ETOT  7   5.7579348620375     -3.015E-09 1.213E-12 3.209E-08
 ETOT  8   5.7579348619811     -5.643E-11 2.345E-14 1.842E-09
 ETOT  9   5.7579348619778     -3.318E-12 1.081E-15 1.392E-10
 ETOT 10   5.7579348619776     -2.061E-13 5.443E-17 4.424E-12
 ETOT 11   5.7579348619776     -2.132E-14 1.821E-18 1.216E-13

 At SCF step   11       vres2   =  1.22E-13 < tolvrs=  1.00E-12 =>converged.
-open ddk wf file :/Users/gmatteo/git_repos/abitutorials/abitutorials/elastic/flow_elastic_ngkpt_conv/w0/t4/indata/in_1WF13
-open ddk wf file :/Users/gmatteo/git_repos/abitutorials/abitutorials/elastic/flow_elastic_ngkpt_conv/w0/t4/indata/in_1WF14
-open ddk wf file :/Users/gmatteo/git_repos/abitutorials/abitutorials/elastic/flow_elastic_ngkpt_conv/w0/t4/indata/in_1WF15
================================================================================

 ----iterations are completed or convergence reached----

 Mean square residual over all n,k,spin=   6.3848E-19; max=  1.8206E-18

 Thirteen components of 2nd-order total energy (hartree) are
 1,2,3: 0th-order hamiltonian combined with 1st-order wavefunctions
     kin0=   2.49791021E+01 eigvalue=   3.76296434E-01  local=  -1.77390526E+01
 4,5,6: 1st-order hamiltonian combined with 1st and 0th-order wfs
 loc psp =  -1.89967903E+00  Hartree=   4.19624827E+00     xc=  -1.78689045E+00
 note that "loc psp" includes a xc core correction that could be resolved
 7,8,9: eventually, occupation + non-local contributions
    edocc=   0.00000000E+00     enl0=   1.03472372E+01   enl1=  -3.88462027E+01
 1-9 gives the relaxation energy (to be shifted if some occ is /=2.0)
   erelax=  -2.03729408E+01
 10,11,12 Non-relaxation  contributions : frozen-wavefunctions and Ewald
 fr.local=  -1.39155399E+01 fr.nonlo=   2.89834781E+01  Ewald=   1.21192482E+01
 13,14 Frozen wf xc core corrections (1) and (2)
 frxc 1  =  -4.77818345E+00  frxc 2 =   3.72187278E+00
 Resulting in :
 2DEtotal=    0.5757934862E+01 Ha. Also 2DEtotal=    0.156681375770E+03 eV
    (2DErelax=   -2.0372940848E+01 Ha. 2DEnonrelax=    2.6130875710E+01 Ha)
    (  non-var. 2DEtotal :    5.7579348616E+00 Ha)

================================================================================

 ---- first-order wavefunction calculations are completed ----


 ==> Compute Derivative Database <==
  
  2nd-order matrix (non-cartesian coordinates, masses not included,
   asr not included )
     j1       j2             matrix element
  dir pert dir pert     real part     imaginary part
  
   1    1   1    1         5.7579348616         0.0000000000
   1    1   2    1        -2.8789674318         0.0000000000
   1    1   3    1         0.0000000512         0.0000000000
   1    1   1    2         0.0755813539        -0.0000000000
   1    1   2    2        -0.0377906770         0.0000000000
   1    1   3    2        -0.0000000505        -0.0000000000
   1    1   1    3        -0.2781620845         0.0000000000
   1    1   2    3         0.1390810438        -0.0000000000
   1    1   3    3        -0.0000001242        -0.0000000000
   1    1   1    4        -5.5553527683         0.0000000000
   1    1   2    4         2.7776763851        -0.0000000000
   1    1   3    4         0.0000001197         0.0000000000
   1    1   1    6       -12.9637645311         0.0000000000
   1    1   2    6         0.0000000025         0.0000000000
   1    1   3    6        -0.0000000001         0.0000000000
  
   2    1   1    1        -2.8789674318         0.0000000000
   2    1   2    1         5.7579348616         0.0000000000
   2    1   3    1         0.0000000513         0.0000000000
   2    1   1    2        -0.0377906769         0.0000000000
   2    1   2    2         0.0755813539        -0.0000000000
   2    1   3    2        -0.0000000505         0.0000000000
   2    1   1    3         0.1390810423        -0.0000000000
   2    1   2    3        -0.2781620845        -0.0000000000
   2    1   3    3        -0.0000001242         0.0000000000
   2    1   1    4         2.7776763841        -0.0000000000
   2    1   2    4        -5.5553527683        -0.0000000000
   2    1   3    4         0.0000001196        -0.0000000000
   2    1   1    6        -0.0000000025         0.0000000000
   2    1   2    6       -12.9637645335         0.0000000000
   2    1   3    6        -0.0000000001         0.0000000000
  
   3    1   1    1         0.0000000512         0.0000000000
   3    1   2    1         0.0000000513         0.0000000000
   3    1   1    2         0.0000000000        -0.0000000000
   3    1   2    2        -0.0000000505         0.0000000000
   3    1   1    3         0.0000000000        -0.0000000000
   3    1   2    3        -0.0000000000         0.0000000000
   3    1   1    4         0.0000000000         0.0000000000
   3    1   2    4        -0.0000000000        -0.0000000000
  
   1    2   1    1         0.0755813539         0.0000000000
   1    2   2    1        -0.0377906769        -0.0000000000
   1    2   3    1        -0.0000000505         0.0000000000
   1    2   1    2         5.7579348616         0.0000000000
   1    2   2    2        -2.8789674318         0.0000000000
   1    2   3    2         0.0000000513         0.0000000000
   1    2   1    3        -5.5553527683        -0.0000000000
   1    2   2    3         2.7776763841        -0.0000000000
   1    2   3    3         0.0000001196         0.0000000000
   1    2   1    4        -0.2781620845        -0.0000000000
   1    2   2    4         0.1390810423         0.0000000000
   1    2   3    4        -0.0000001242        -0.0000000000
   1    2   1    6       -12.9637645335         0.0000000000
   1    2   2    6        -0.0000000025         0.0000000000
   1    2   3    6        -0.0000000001         0.0000000000
  
   2    2   1    1        -0.0377906770        -0.0000000000
   2    2   2    1         0.0755813539         0.0000000000
   2    2   3    1        -0.0000000505        -0.0000000000
   2    2   1    2        -2.8789674318         0.0000000000
   2    2   2    2         5.7579348616         0.0000000000
   2    2   3    2         0.0000000512         0.0000000000
   2    2   1    3         2.7776763851        -0.0000000000
   2    2   2    3        -5.5553527683         0.0000000000
   2    2   3    3         0.0000001197         0.0000000000
   2    2   1    4         0.1390810438         0.0000000000
   2    2   2    4        -0.2781620845         0.0000000000
   2    2   3    4        -0.0000001242         0.0000000000
   2    2   1    6         0.0000000025         0.0000000000
   2    2   2    6       -12.9637645311         0.0000000000
   2    2   3    6        -0.0000000001         0.0000000000
  
   3    2   1    1        -0.0000000505         0.0000000000
   3    2   2    1        -0.0000000000        -0.0000000000
   3    2   1    2         0.0000000513         0.0000000000
   3    2   2    2         0.0000000512         0.0000000000
   3    2   1    3        -0.0000000000         0.0000000000
   3    2   2    3         0.0000000000         0.0000000000
   3    2   1    4        -0.0000000000        -0.0000000000
   3    2   2    4        -0.0000000000         0.0000000000
  
   1    3   1    1        -0.2781620845        -0.0000000000
   1    3   2    1         0.1390810423         0.0000000000
   1    3   3    1         0.0000000000         0.0000000000
   1    3   1    2        -5.5553527683         0.0000000000
   1    3   2    2         2.7776763851         0.0000000000
   1    3   3    2        -0.0000000000        -0.0000000000
   1    3   3    3         0.0000000000         0.0000000000
   1    3   3    4         0.0000000000        -0.0000000000
   1    3   2    6         0.0000000000         0.0000000000
   1    3   3    6         0.0000000000         0.0000000000
  
   2    3   1    1         0.1390810438         0.0000000000
   2    3   2    1        -0.2781620845         0.0000000000
   2    3   3    1        -0.0000000000        -0.0000000000
   2    3   1    2         2.7776763841         0.0000000000
   2    3   2    2        -5.5553527683        -0.0000000000
   2    3   3    2         0.0000000000        -0.0000000000
   2    3   3    3        -0.0000000000         0.0000000000
   2    3   3    4        -0.0000000000        -0.0000000000
   2    3   1    6         0.0000000000         0.0000000000
   2    3   3    6         0.0000000000         0.0000000000
  
   3    3   1    1        -0.0000001242         0.0000000000
   3    3   2    1        -0.0000001242        -0.0000000000
   3    3   1    2        -0.0000000000        -0.0000000000
   3    3   2    2         0.0000001197        -0.0000000000
   3    3   1    3         0.0000000000         0.0000000000
   3    3   2    3        -0.0000000000         0.0000000000
   3    3   1    4         0.0000000000        -0.0000000000
   3    3   2    4        -0.0000000000        -0.0000000000
  
   1    4   1    1        -5.5553527683        -0.0000000000
   1    4   2    1         2.7776763841         0.0000000000
   1    4   3    1         0.0000000000        -0.0000000000
   1    4   1    2        -0.2781620845         0.0000000000
   1    4   2    2         0.1390810438        -0.0000000000
   1    4   3    2        -0.0000000000         0.0000000000
   1    4   3    3         0.0000000000         0.0000000000
   1    4   3    4        -0.0000000000         0.0000000000
   1    4   2    6         0.0000000000         0.0000000000
   1    4   3    6         0.0000000000         0.0000000000
  
   2    4   1    1         2.7776763851         0.0000000000
   2    4   2    1        -5.5553527683         0.0000000000
   2    4   3    1        -0.0000000000         0.0000000000
   2    4   1    2         0.1390810423        -0.0000000000
   2    4   2    2        -0.2781620845        -0.0000000000
   2    4   3    2        -0.0000000000        -0.0000000000
   2    4   3    3        -0.0000000000         0.0000000000
   2    4   3    4         0.0000000000         0.0000000000
   2    4   1    6         0.0000000000         0.0000000000
   2    4   3    6         0.0000000000         0.0000000000
  
   3    4   1    1         0.0000001197        -0.0000000000
   3    4   2    1        -0.0000000000         0.0000000000
   3    4   1    2        -0.0000001242         0.0000000000
   3    4   2    2        -0.0000001242        -0.0000000000
   3    4   1    3         0.0000000000         0.0000000000
   3    4   2    3        -0.0000000000         0.0000000000
   3    4   1    4        -0.0000000000         0.0000000000
   3    4   2    4         0.0000000000         0.0000000000
  
   1    6   1    1       -12.9637645311         0.0000000000
   1    6   2    1        -0.0000000025         0.0000000000
   1    6   1    2       -12.9637645335         0.0000000000
   1    6   2    2         0.0000000025         0.0000000000
   1    6   2    3         0.0000000000         0.0000000000
   1    6   2    4         0.0000000000         0.0000000000
   1    6   3    6         0.0000000000         0.0000000000
  
   2    6   1    1         0.0000000025         0.0000000000
   2    6   2    1       -12.9637645335         0.0000000000
   2    6   1    2        -0.0000000025         0.0000000000
   2    6   2    2       -12.9637645311         0.0000000000
   2    6   1    3         0.0000000000         0.0000000000
   2    6   1    4         0.0000000000         0.0000000000
   2    6   3    6         0.0000000000         0.0000000000
  
   3    6   1    1        -0.0000000001         0.0000000000
   3    6   2    1        -0.0000000001         0.0000000000
   3    6   1    2        -0.0000000001         0.0000000000
   3    6   2    2        -0.0000000001         0.0000000000
   3    6   1    3         0.0000000000         0.0000000000
   3    6   2    3         0.0000000000         0.0000000000
   3    6   1    4         0.0000000000         0.0000000000
   3    6   2    4         0.0000000000         0.0000000000
   3    6   1    6         0.0000000000         0.0000000000
   3    6   2    6         0.0000000000         0.0000000000
  
  
  Dynamical matrix, in cartesian coordinates,
   if specified in the inputs, asr has been imposed
     j1       j2             matrix element
  dir pert dir pert     real part    imaginary part
  
   1    1   1    1         0.1013079004         0.0000000000
   1    1   2    1         0.0000000000         0.0000000000
   1    1   3    1        -0.0000000000         0.0000000000
   1    1   1    2         0.0013298150        -0.0000000000
   1    1   2    2        -0.0000000000        -0.0000000000
   1    1   3    2         0.0000000000        -0.0000000000
   1    1   1    3        -0.0048941187         0.0000000000
   1    1   2    3         0.0000000000         0.0000000000
   1    1   3    3         0.0000000000        -0.0000000000
   1    1   1    4        -0.0977435727         0.0000000000
   1    1   2    4         0.0000000000         0.0000000000
   1    1   3    4         0.0000000000         0.0000000000
  
   2    1   1    1         0.0000000000         0.0000000000
   2    1   2    1         0.1013079004         0.0000000000
   2    1   3    1         0.0000000011         0.0000000000
   2    1   1    2         0.0000000000        -0.0000000000
   2    1   2    2         0.0013298150         0.0000000000
   2    1   3    2        -0.0000000011        -0.0000000000
   2    1   1    3        -0.0000000000         0.0000000000
   2    1   2    3        -0.0048941187         0.0000000000
   2    1   3    3        -0.0000000027         0.0000000000
   2    1   1    4        -0.0000000000         0.0000000000
   2    1   2    4        -0.0977435727        -0.0000000000
   2    1   3    4         0.0000000026        -0.0000000000
  
   3    1   1    1        -0.0000000000         0.0000000000
   3    1   2    1         0.0000000011         0.0000000000
   3    1   1    2         0.0000000003        -0.0000000000
   3    1   2    2        -0.0000000005        -0.0000000000
   3    1   1    3         0.0000000000        -0.0000000000
   3    1   2    3        -0.0000000000         0.0000000000
   3    1   1    4         0.0000000000         0.0000000000
   3    1   2    4        -0.0000000000        -0.0000000000
  
   1    2   1    1         0.0013298150         0.0000000000
   1    2   2    1         0.0000000000         0.0000000000
   1    2   3    1         0.0000000000         0.0000000000
   1    2   1    2         0.1013079004         0.0000000000
   1    2   2    2        -0.0000000000         0.0000000000
   1    2   3    2         0.0000000000         0.0000000000
   1    2   1    3        -0.0977435727         0.0000000000
   1    2   2    3        -0.0000000000        -0.0000000000
   1    2   3    3        -0.0000000000         0.0000000000
   1    2   1    4        -0.0048941187        -0.0000000000
   1    2   2    4        -0.0000000000        -0.0000000000
   1    2   3    4        -0.0000000000        -0.0000000000
  
   2    2   1    1        -0.0000000000         0.0000000000
   2    2   2    1         0.0013298150        -0.0000000000
   2    2   3    1        -0.0000000011         0.0000000000
   2    2   1    2        -0.0000000000         0.0000000000
   2    2   2    2         0.1013079004         0.0000000000
   2    2   3    2         0.0000000011         0.0000000000
   2    2   1    3         0.0000000000        -0.0000000000
   2    2   2    3        -0.0977435727        -0.0000000000
   2    2   3    3         0.0000000026         0.0000000000
   2    2   1    4         0.0000000000        -0.0000000000
   2    2   2    4        -0.0048941187         0.0000000000
   2    2   3    4        -0.0000000027         0.0000000000
  
   3    2   1    1        -0.0000000003         0.0000000000
   3    2   2    1        -0.0000000005         0.0000000000
   3    2   1    2         0.0000000000         0.0000000000
   3    2   2    2         0.0000000011         0.0000000000
   3    2   1    3        -0.0000000000         0.0000000000
   3    2   2    3        -0.0000000000         0.0000000000
   3    2   1    4        -0.0000000000        -0.0000000000
   3    2   2    4        -0.0000000000         0.0000000000
  
   1    3   1    1        -0.0048941187        -0.0000000000
   1    3   2    1        -0.0000000000        -0.0000000000
   1    3   3    1         0.0000000000         0.0000000000
   1    3   1    2        -0.0977435727        -0.0000000000
   1    3   2    2         0.0000000000         0.0000000000
   1    3   3    2        -0.0000000000        -0.0000000000
   1    3   3    3         0.0000000000         0.0000000000
   1    3   3    4         0.0000000000        -0.0000000000
  
   2    3   1    1         0.0000000000        -0.0000000000
   2    3   2    1        -0.0048941187        -0.0000000000
   2    3   3    1        -0.0000000000        -0.0000000000
   2    3   1    2        -0.0000000000         0.0000000000
   2    3   2    2        -0.0977435727         0.0000000000
   2    3   3    2        -0.0000000000        -0.0000000000
   2    3   3    3         0.0000000000         0.0000000000
   2    3   3    4         0.0000000000        -0.0000000000
  
   3    3   1    1         0.0000000000         0.0000000000
   3    3   2    1        -0.0000000027        -0.0000000000
   3    3   1    2        -0.0000000007        -0.0000000000
   3    3   2    2         0.0000000013        -0.0000000000
   3    3   1    3         0.0000000000         0.0000000000
   3    3   2    3         0.0000000000         0.0000000000
   3    3   1    4         0.0000000000        -0.0000000000
   3    3   2    4         0.0000000000        -0.0000000000
  
   1    4   1    1        -0.0977435727        -0.0000000000
   1    4   2    1        -0.0000000000        -0.0000000000
   1    4   3    1         0.0000000000        -0.0000000000
   1    4   1    2        -0.0048941187         0.0000000000
   1    4   2    2         0.0000000000         0.0000000000
   1    4   3    2        -0.0000000000         0.0000000000
   1    4   3    3         0.0000000000         0.0000000000
   1    4   3    4        -0.0000000000         0.0000000000
  
   2    4   1    1         0.0000000000        -0.0000000000
   2    4   2    1        -0.0977435727         0.0000000000
   2    4   3    1        -0.0000000000         0.0000000000
   2    4   1    2        -0.0000000000         0.0000000000
   2    4   2    2        -0.0048941187        -0.0000000000
   2    4   3    2        -0.0000000000        -0.0000000000
   2    4   3    3         0.0000000000         0.0000000000
   2    4   3    4         0.0000000000         0.0000000000
  
   3    4   1    1         0.0000000007        -0.0000000000
   3    4   2    1         0.0000000013         0.0000000000
   3    4   1    2        -0.0000000000         0.0000000000
   3    4   2    2        -0.0000000027        -0.0000000000
   3    4   1    3         0.0000000000         0.0000000000
   3    4   2    3         0.0000000000         0.0000000000
   3    4   1    4        -0.0000000000         0.0000000000
   3    4   2    4         0.0000000000         0.0000000000
  
  Effective charges, in cartesian coordinates,
  (from phonon response) 
   if specified in the inputs, asr has been imposed
     j1       j2             matrix element
  dir pert dir pert     real part    imaginary part
  
   1    6   1    1         0.9367527936         0.0000000000
   2    6   1    1         0.0000000003         0.0000000000
   3    6   1    1         0.0000000000         0.0000000000
  
   1    6   2    1        -0.0000000003         0.0000000000
   2    6   2    1         0.9367527936         0.0000000000
   3    6   2    1        -0.0000000000         0.0000000000
  
   1    6   1    2         0.9367527936         0.0000000000
   2    6   1    2        -0.0000000003         0.0000000000
   3    6   1    2         0.0000000000         0.0000000000
  
   1    6   2    2         0.0000000003         0.0000000000
   2    6   2    2         0.9367527936         0.0000000000
   3    6   2    2        -0.0000000000         0.0000000000
  
   3    6   1    3         0.0000000000         0.0000000000
  
   3    6   2    3         0.0000000000         0.0000000000
  
   3    6   1    4         0.0000000000         0.0000000000
  
   3    6   2    4         0.0000000000         0.0000000000
  
  
  
  

  Phonon wavevector (reduced coordinates) :  0.00000  0.00000  0.00000
 Phonon energies in Hartree :
   0.000000E+00  0.000000E+00  0.000000E+00  0.000000E+00  0.000000E+00
   0.000000E+00  0.000000E+00  0.000000E+00  1.425736E-03  1.425736E-03
   1.444575E-03  1.444575E-03
 Phonon frequencies in cm-1    :
-  0.000000E+00  0.000000E+00  0.000000E+00  0.000000E+00  0.000000E+00
-  0.000000E+00  0.000000E+00  0.000000E+00  3.129128E+02  3.129128E+02
-  3.170476E+02  3.170476E+02
 chkph3 : WARNING -
  The dynamical matrix was incomplete : phonon frequencies may be wrong ...

== END DATASET(S) ==============================================================
================================================================================
  
 -outvars: echo values of variables after computation  --------
            acell      1.0000000000E+00  1.0000000000E+00  1.0000000000E+00 Bohr
              amu      2.69815390E+01  7.49215900E+01
           diemac      9.00000000E+00
             ecut      6.00000000E+00 Hartree
           ecutsm      5.00000000E-01 Hartree
           etotal      5.7579348620E+00
            fcart      0.0000000000E+00  0.0000000000E+00  0.0000000000E+00
                       0.0000000000E+00  0.0000000000E+00  0.0000000000E+00
                       0.0000000000E+00  0.0000000000E+00  0.0000000000E+00
                       0.0000000000E+00  0.0000000000E+00  0.0000000000E+00
-          fftalg         112
           irdddk           1
           irdwfk           1
              kpt      0.00000000E+00  0.00000000E+00  2.50000000E-01
                       5.00000000E-01  0.00000000E+00  2.50000000E-01
                       0.00000000E+00  5.00000000E-01  2.50000000E-01
                       5.00000000E-01  5.00000000E-01  2.50000000E-01
           kptopt           2
         kptrlatt        2    0    0      0    2    0      0    0    2
          kptrlen      1.50779296E+01
P           mkmem           2
P          mkqmem           2
P          mk1mem           2
            natom           4
            nband           8
            ngfft          18      18      30
             nkpt           4
             nqpt           1
            nstep          40
             nsym          12
           ntypat           2
              occ      2.000000  2.000000  2.000000  2.000000  2.000000  2.000000
                       2.000000  2.000000
        optdriver           1
            rfdir           1       0       0
           rfphon           1
            rprim      6.5289350475E+00  3.7694824072E+00  0.0000000000E+00
                      -6.5289350475E+00  3.7694824072E+00  0.0000000000E+00
                       0.0000000000E+00  0.0000000000E+00  1.2277795374E+01
           shiftk      0.00000000E+00  0.00000000E+00  5.00000000E-01
          spgroup         186
           strten      0.0000000000E+00  0.0000000000E+00  0.0000000000E+00
                       0.0000000000E+00  0.0000000000E+00  0.0000000000E+00
           symrel      1  0  0   0  1  0   0  0  1       0  1  0   1  0  0   0  0  1
                       1  1  0  -1  0  0   0  0  1      -1  0  0   1  1  0   0  0  1
                       0  1  0  -1 -1  0   0  0  1      -1 -1  0   0  1  0   0  0  1
                      -1  0  0   0 -1  0   0  0  1       0 -1  0  -1  0  0   0  0  1
                      -1 -1  0   1  0  0   0  0  1       1  0  0  -1 -1  0   0  0  1
                       0 -1  0   1  1  0   0  0  1       1  1  0   0 -1  0   0  0  1
            tnons      0.0000000  0.0000000  0.0000000     0.0000000  0.0000000  0.5000000
                       0.0000000  0.0000000  0.5000000    -0.0000000  0.0000000  0.0000000
                       0.0000000  0.0000000  0.0000000     0.0000000 -0.0000000  0.5000000
                       0.0000000  0.0000000  0.5000000     0.0000000  0.0000000  0.0000000
                      -0.0000000  0.0000000  0.0000000     0.0000000  0.0000000  0.5000000
                       0.0000000 -0.0000000  0.5000000     0.0000000  0.0000000  0.0000000
           tolvrs      1.00000000E-12
            typat      1  1  2  2
              wtk        0.25000    0.25000    0.25000    0.25000
           xangst     -1.1516545412E+00  1.9947241781E+00  7.2132627467E-16
                       1.1516545412E+00  1.9947241781E+00  3.2485647418E+00
                      -1.1516545412E+00  1.9947241781E+00  2.4434786834E+00
                       1.1516545412E+00  1.9947241781E+00  5.6920434252E+00
            xcart     -2.1763116825E+00  3.7694824072E+00  1.3631091116E-15
                       2.1763116825E+00  3.7694824072E+00  6.1388976870E+00
                      -2.1763116825E+00  3.7694824072E+00  4.6175055231E+00
                       2.1763116825E+00  3.7694824072E+00  1.0756403210E+01
             xred      3.3333333333E-01  6.6666666667E-01  1.1102230246E-16
                       6.6666666667E-01  3.3333333333E-01  5.0000000000E-01
                       3.3333333333E-01  6.6666666667E-01  3.7608588370E-01
                       6.6666666667E-01  3.3333333333E-01  8.7608588370E-01
            znucl       13.00000   33.00000

================================================================================


- Timing analysis has been suppressed with timopt=0



================================================================================

 Suggested references for the acknowledgment of ABINIT usage.

 The users of ABINIT have little formal obligations with respect to the ABINIT group
 (those specified in the GNU General Public License, http://www.gnu.org/copyleft/gpl.txt).
 However, it is common practice in the scientific literature,
 to acknowledge the efforts of people that have made the research possible.
 In this spirit, please find below suggested citations of work written by ABINIT developers,
 corresponding to implementations inside of ABINIT that you have used in the present run.
 Note also that it will be of great value to readers of publications presenting these results,
 to read papers enabling them to understand the theoretical formalism and details
 of the ABINIT implementation.
 For information on why they are suggested, see also https://docs.abinit.org/theory/acknowledgments.
-
- [1] Recent developments in the ABINIT software package.
- Computer Phys. Comm. 205, 106 (2016).
- X.Gonze, F.Jollet, F.Abreu Araujo, D.Adams, B.Amadon, T.Applencourt,
- C.Audouze, J.-M.Beuken, J.Bieder, A.Bokhanchuk, E.Bousquet, F.Bruneval
- D.Caliste, M.Cote, F.Dahm, F.Da Pieve, M.Delaveau, M.Di Gennaro,
- B.Dorado, C.Espejo, G.Geneste, L.Genovese, A.Gerossier, M.Giantomassi,
- Y.Gillet, D.R.Hamann, L.He, G.Jomard, J.Laflamme Janssen, S.Le Roux,
- A.Levitt, A.Lherbier, F.Liu, I.Lukacevic, A.Martin, C.Martins,
- M.J.T.Oliveira, S.Ponce, Y.Pouillon, T.Rangel, G.-M.Rignanese,
- A.H.Romero, B.Rousseau, O.Rubel, A.A.Shukri, M.Stankovski, M.Torrent,
- M.J.Van Setten, B.Van Troeye, M.J.Verstraete, D.Waroquier, J.Wiktor,
- B.Xu, A.Zhou, J.W.Zwanziger.
- Comment : the fourth generic paper describing the ABINIT project.
- Note that a version of this paper, that is not formatted for Computer Phys. Comm. 
- is available at https://www.abinit.org/about/ABINIT16.pdf .
- The licence allows the authors to put it on the Web.
- DOI and bibtex : see https://docs.abinit.org/theory/bibliography/#gonze2016
-
- [2] First-principles responses of solids to atomic displacements and homogeneous electric fields:,
- implementation of a conjugate-gradient algorithm. X. Gonze, Phys. Rev. B55, 10337 (1997).
- Comment : Non-vanishing rfphon and/or rfelfd, in the norm-conserving case.
- DOI and bibtex : see https://docs.abinit.org/theory/bibliography/#gonze1997
-
- [3] Dynamical matrices, Born effective charges, dielectric permittivity tensors, and ,
- interatomic force constants from density-functional perturbation theory,
- X. Gonze and C. Lee, Phys. Rev. B55, 10355 (1997).
- Comment : Non-vanishing rfphon and/or rfelfd, in the norm-conserving case.
- DOI and bibtex : see https://docs.abinit.org/theory/bibliography/#gonze1997a
-
- [4] ABINIT : First-principles approach of materials and nanosystem properties.
- Computer Phys. Comm. 180, 2582-2615 (2009).
- X. Gonze, B. Amadon, P.-M. Anglade, J.-M. Beuken, F. Bottin, P. Boulanger, F. Bruneval,
- D. Caliste, R. Caracas, M. Cote, T. Deutsch, L. Genovese, Ph. Ghosez, M. Giantomassi
- S. Goedecker, D.R. Hamann, P. Hermet, F. Jollet, G. Jomard, S. Leroux, M. Mancini, S. Mazevet,
- M.J.T. Oliveira, G. Onida, Y. Pouillon, T. Rangel, G.-M. Rignanese, D. Sangalli, R. Shaltaf,
- M. Torrent, M.J. Verstraete, G. Zerah, J.W. Zwanziger
- Comment : the third generic paper describing the ABINIT project.
- Note that a version of this paper, that is not formatted for Computer Phys. Comm. 
- is available at https://www.abinit.org/about/ABINIT_CPC_v10.pdf .
- The licence allows the authors to put it on the Web.
- DOI and bibtex : see https://docs.abinit.org/theory/bibliography/#gonze2009
-
- [5] A brief introduction to the ABINIT software package.
- Z. Kristallogr. 220, 558-562 (2005).
- X. Gonze, G.-M. Rignanese, M. Verstraete, J.-M. Beuken, Y. Pouillon, R. Caracas, F. Jollet,
- M. Torrent, G. Zerah, M. Mikami, Ph. Ghosez, M. Veithen, J.-Y. Raty, V. Olevano, F. Bruneval,
- L. Reining, R. Godby, G. Onida, D.R. Hamann, and D.C. Allan.
- Comment : the second generic paper describing the ABINIT project. Note that this paper
- should be cited especially if you are using the GW part of ABINIT, as several authors
- of this part are not in the list of authors of the first or third paper.
- The .pdf of the latter paper is available at https://www.abinit.org/about/zfk_0505-06_558-562.pdf.
- Note that it should not redistributed (Copyright by Oldenburg Wissenshaftverlag,
- the licence allows the authors to put it on the Web).
- DOI and bibtex : see https://docs.abinit.org/theory/bibliography/#gonze2005
-
- Proc.   0 individual time (sec): cpu=          1.6  wall=          1.7

================================================================================

 Calculation completed.
.Delivered   1 WARNINGs and   0 COMMENTs to log file.
+Overall time at end (sec) : cpu=          3.2  wall=          3.3
