
.Version 8.5.3 of ABINIT 
.(MPI version, prepared for a x86_64_darwin16.7.0_gnu4.8 computer) 

.Copyright (C) 1998-2017 ABINIT group . 
 ABINIT comes with ABSOLUTELY NO WARRANTY.
 It is free software, and you are welcome to redistribute it
 under certain conditions (GNU General Public License,
 see ~abinit/COPYING or http://www.gnu.org/copyleft/gpl.txt).

 ABINIT is a project of the Universite Catholique de Louvain,
 Corning Inc. and other collaborators, see ~abinit/doc/developers/contributors.txt .
 Please read ~abinit/doc/users/acknowledgments.html for suggested
 acknowledgments of the ABINIT effort.
 For more information, see http://www.abinit.org .

.Starting date : Fri 13 Oct 2017.
- ( at 18h11 )
  
- input  file    -> /Users/gmatteo/git_repos/abitutorials/abitutorials/bse/flow_bse/w0/t1/run.abi
- output file    -> /Users/gmatteo/git_repos/abitutorials/abitutorials/bse/flow_bse/w0/t1/run.abo
- root for input  files -> /Users/gmatteo/git_repos/abitutorials/abitutorials/bse/flow_bse/w0/t1/indata/in
- root for output files -> /Users/gmatteo/git_repos/abitutorials/abitutorials/bse/flow_bse/w0/t1/outdata/out


 Symmetries : space group Fd -3 m (#227); Bravais cF (face-center cubic)
================================================================================
 Values of the parameters that define the memory need of the present run
     intxc =       0    ionmov =       0      iscf =      -2    lmnmax =       2
     lnmax =       2     mgfft =      16  mpssoang =       3    mqgrid =    3001
     natom =       2  nloc_mem =       1    nspden =       1   nspinor =       1
    nsppol =       1      nsym =      48    n1xccc =    2501    ntypat =       1
    occopt =       1   xclevel =       1
-    mband =          15        mffmem =           1         mkmem =         108
       mpw =         195          nfft =        4096          nkpt =         216
================================================================================
P This job should need less than                       6.780 Mbytes of memory.
  Rough estimation (10% accuracy) of disk space for files :
_ WF disk file :      9.643 Mbytes ; DEN or POT disk file :      0.033 Mbytes.
================================================================================

--------------------------------------------------------------------------------
------------- Echo of variables that govern the present computation ------------
--------------------------------------------------------------------------------
-
- outvars: echo of selected default values                                      
-   iomode0 =  0 , fftalg0 =112 , wfoptalg0 =  0
-
- outvars: echo of global parameters not present in the input file              
-  max_nthreads =    0
-
 -outvars: echo values of preprocessed input variables --------
            acell      1.0000000000E+00  1.0000000000E+00  1.0000000000E+00 Bohr
              amu      2.80855000E+01
      chksymbreak           0
           diemac      1.20000000E+01
             ecut      6.00000000E+00 Hartree
-          fftalg         112
           irdden           1
             iscf          -2
              kpt      1.83333333E-02  3.50000000E-02  5.16666667E-02
                       1.85000000E-01  3.50000000E-02  5.16666667E-02
                       3.51666667E-01  3.50000000E-02  5.16666667E-02
                      -4.81666667E-01  3.50000000E-02  5.16666667E-02
                      -3.15000000E-01  3.50000000E-02  5.16666667E-02
                      -1.48333333E-01  3.50000000E-02  5.16666667E-02
                       1.83333333E-02  2.01666667E-01  5.16666667E-02
                       1.85000000E-01  2.01666667E-01  5.16666667E-02
                       3.51666667E-01  2.01666667E-01  5.16666667E-02
                      -4.81666667E-01  2.01666667E-01  5.16666667E-02
                      -3.15000000E-01  2.01666667E-01  5.16666667E-02
                      -1.48333333E-01  2.01666667E-01  5.16666667E-02
                       1.83333333E-02  3.68333333E-01  5.16666667E-02
                       1.85000000E-01  3.68333333E-01  5.16666667E-02
                       3.51666667E-01  3.68333333E-01  5.16666667E-02
                      -4.81666667E-01  3.68333333E-01  5.16666667E-02
                      -3.15000000E-01  3.68333333E-01  5.16666667E-02
                      -1.48333333E-01  3.68333333E-01  5.16666667E-02
                       1.83333333E-02 -4.65000000E-01  5.16666667E-02
                       1.85000000E-01 -4.65000000E-01  5.16666667E-02
                       3.51666667E-01 -4.65000000E-01  5.16666667E-02
                      -4.81666667E-01 -4.65000000E-01  5.16666667E-02
                      -3.15000000E-01 -4.65000000E-01  5.16666667E-02
                      -1.48333333E-01 -4.65000000E-01  5.16666667E-02
                       1.83333333E-02 -2.98333333E-01  5.16666667E-02
                       1.85000000E-01 -2.98333333E-01  5.16666667E-02
                       3.51666667E-01 -2.98333333E-01  5.16666667E-02
                      -4.81666667E-01 -2.98333333E-01  5.16666667E-02
                      -3.15000000E-01 -2.98333333E-01  5.16666667E-02
                      -1.48333333E-01 -2.98333333E-01  5.16666667E-02
                       1.83333333E-02 -1.31666667E-01  5.16666667E-02
                       1.85000000E-01 -1.31666667E-01  5.16666667E-02
                       3.51666667E-01 -1.31666667E-01  5.16666667E-02
                      -4.81666667E-01 -1.31666667E-01  5.16666667E-02
                      -3.15000000E-01 -1.31666667E-01  5.16666667E-02
                      -1.48333333E-01 -1.31666667E-01  5.16666667E-02
                       1.83333333E-02  3.50000000E-02  2.18333333E-01
                       1.85000000E-01  3.50000000E-02  2.18333333E-01
                       3.51666667E-01  3.50000000E-02  2.18333333E-01
                      -4.81666667E-01  3.50000000E-02  2.18333333E-01
                      -3.15000000E-01  3.50000000E-02  2.18333333E-01
                      -1.48333333E-01  3.50000000E-02  2.18333333E-01
                       1.83333333E-02  2.01666667E-01  2.18333333E-01
                       1.85000000E-01  2.01666667E-01  2.18333333E-01
                       3.51666667E-01  2.01666667E-01  2.18333333E-01
                      -4.81666667E-01  2.01666667E-01  2.18333333E-01
                      -3.15000000E-01  2.01666667E-01  2.18333333E-01
                      -1.48333333E-01  2.01666667E-01  2.18333333E-01
                       1.83333333E-02  3.68333333E-01  2.18333333E-01
                       1.85000000E-01  3.68333333E-01  2.18333333E-01
                       outvar_i_n : Printing only first  50 k-points.
         kptrlatt        6    0    0      0    6    0      0    0    6
          kptrlen      4.33470599E+01
P           mkmem         108
            natom           2
            nband          15
           nbdbuf           2
            ngfft          16      16      16
             nkpt         216
             nsym          48
           ntypat           1
            rprim      0.0000000000E+00  5.1085000000E+00  5.1085000000E+00
                       5.1085000000E+00  0.0000000000E+00  5.1085000000E+00
                       5.1085000000E+00  5.1085000000E+00  0.0000000000E+00
           shiftk      1.10000000E-01  2.10000000E-01  3.10000000E-01
          spgroup         227
           symrel      1  0  0   0  1  0   0  0  1      -1  0  0   0 -1  0   0  0 -1
                       0 -1  1   0 -1  0   1 -1  0       0  1 -1   0  1  0  -1  1  0
                      -1  0  0  -1  0  1  -1  1  0       1  0  0   1  0 -1   1 -1  0
                       0  1 -1   1  0 -1   0  0 -1       0 -1  1  -1  0  1   0  0  1
                      -1  0  0  -1  1  0  -1  0  1       1  0  0   1 -1  0   1  0 -1
                       0 -1  1   1 -1  0   0 -1  0       0  1 -1  -1  1  0   0  1  0
                       1  0  0   0  0  1   0  1  0      -1  0  0   0  0 -1   0 -1  0
                       0  1 -1   0  0 -1   1  0 -1       0 -1  1   0  0  1  -1  0  1
                      -1  0  1  -1  1  0  -1  0  0       1  0 -1   1 -1  0   1  0  0
                       0 -1  0   1 -1  0   0 -1  1       0  1  0  -1  1  0   0  1 -1
                       1  0 -1   0  0 -1   0  1 -1      -1  0  1   0  0  1   0 -1  1
                       0  1  0   0  0  1   1  0  0       0 -1  0   0  0 -1  -1  0  0
                       1  0 -1   0  1 -1   0  0 -1      -1  0  1   0 -1  1   0  0  1
                       0 -1  0   0 -1  1   1 -1  0       0  1  0   0  1 -1  -1  1  0
                      -1  0  1  -1  0  0  -1  1  0       1  0 -1   1  0  0   1 -1  0
                       0  1  0   1  0  0   0  0  1       0 -1  0  -1  0  0   0  0 -1
                       0  0 -1   0  1 -1   1  0 -1       0  0  1   0 -1  1  -1  0  1
                       1 -1  0   0 -1  1   0 -1  0      -1  1  0   0  1 -1   0  1  0
                       0  0  1   1  0  0   0  1  0       0  0 -1  -1  0  0   0 -1  0
                      -1  1  0  -1  0  0  -1  0  1       1 -1  0   1  0  0   1  0 -1
                       0  0  1   0  1  0   1  0  0       0  0 -1   0 -1  0  -1  0  0
                       1 -1  0   0 -1  0   0 -1  1      -1  1  0   0  1  0   0  1 -1
                       0  0 -1   1  0 -1   0  1 -1       0  0  1  -1  0  1   0 -1  1
                      -1  1  0  -1  0  1  -1  0  0       1 -1  0   1  0 -1   1  0  0
            tnons      0.0000000  0.0000000  0.0000000     0.2500000  0.2500000  0.2500000
                       0.0000000  0.0000000  0.0000000     0.2500000  0.2500000  0.2500000
                       0.0000000  0.0000000  0.0000000     0.2500000  0.2500000  0.2500000
                       0.0000000  0.0000000  0.0000000     0.2500000  0.2500000  0.2500000
                       0.0000000  0.0000000  0.0000000     0.2500000  0.2500000  0.2500000
                       0.0000000  0.0000000  0.0000000     0.2500000  0.2500000  0.2500000
                       0.0000000  0.0000000  0.0000000     0.2500000  0.2500000  0.2500000
                       0.0000000  0.0000000  0.0000000     0.2500000  0.2500000  0.2500000
                       0.0000000  0.0000000  0.0000000     0.2500000  0.2500000  0.2500000
                       0.0000000  0.0000000  0.0000000     0.2500000  0.2500000  0.2500000
                       0.0000000  0.0000000  0.0000000     0.2500000  0.2500000  0.2500000
                       0.0000000  0.0000000  0.0000000     0.2500000  0.2500000  0.2500000
                       0.0000000  0.0000000  0.0000000     0.2500000  0.2500000  0.2500000
                       0.0000000  0.0000000  0.0000000     0.2500000  0.2500000  0.2500000
                       0.0000000  0.0000000  0.0000000     0.2500000  0.2500000  0.2500000
                       0.0000000  0.0000000  0.0000000     0.2500000  0.2500000  0.2500000
                       0.0000000  0.0000000  0.0000000     0.2500000  0.2500000  0.2500000
                       0.0000000  0.0000000  0.0000000     0.2500000  0.2500000  0.2500000
                       0.0000000  0.0000000  0.0000000     0.2500000  0.2500000  0.2500000
                       0.0000000  0.0000000  0.0000000     0.2500000  0.2500000  0.2500000
                       0.0000000  0.0000000  0.0000000     0.2500000  0.2500000  0.2500000
                       0.0000000  0.0000000  0.0000000     0.2500000  0.2500000  0.2500000
                       0.0000000  0.0000000  0.0000000     0.2500000  0.2500000  0.2500000
                       0.0000000  0.0000000  0.0000000     0.2500000  0.2500000  0.2500000
           tolwfr      1.00000000E-08
            typat      1  1
              wtk        0.00463    0.00463    0.00463    0.00463    0.00463    0.00463
                         0.00463    0.00463    0.00463    0.00463    0.00463    0.00463
                         0.00463    0.00463    0.00463    0.00463    0.00463    0.00463
                         0.00463    0.00463    0.00463    0.00463    0.00463    0.00463
                         0.00463    0.00463    0.00463    0.00463    0.00463    0.00463
                         0.00463    0.00463    0.00463    0.00463    0.00463    0.00463
                         0.00463    0.00463    0.00463    0.00463    0.00463    0.00463
                         0.00463    0.00463    0.00463    0.00463    0.00463    0.00463
                         0.00463    0.00463
                       outvars : Printing only first  50 k-points.
           xangst      0.0000000000E+00  0.0000000000E+00  0.0000000000E+00
                       1.3516508850E+00  1.3516508850E+00  1.3516508850E+00
            xcart      0.0000000000E+00  0.0000000000E+00  0.0000000000E+00
                       2.5542500000E+00  2.5542500000E+00  2.5542500000E+00
             xred      0.0000000000E+00  0.0000000000E+00  0.0000000000E+00
                       2.5000000000E-01  2.5000000000E-01  2.5000000000E-01
            znucl       14.00000

================================================================================

 chkinp: Checking input parameters for consistency.

================================================================================
== DATASET  1 ==================================================================
-   nproc =    2

 Exchange-correlation functional for the present dataset will be:
  LDA: new Teter (4/93) with spin-polarized option - ixc=1
 Citation for XC functional:
  S. Goedecker, M. Teter, J. Huetter, PRB 54, 1703 (1996)

 Real(R)+Recip(G) space primitive vectors, cartesian coordinates (Bohr,Bohr^-1):
 R(1)=  0.0000000  5.1085000  5.1085000  G(1)= -0.0978761  0.0978761  0.0978761
 R(2)=  5.1085000  0.0000000  5.1085000  G(2)=  0.0978761 -0.0978761  0.0978761
 R(3)=  5.1085000  5.1085000  0.0000000  G(3)=  0.0978761  0.0978761 -0.0978761
 Unit cell volume ucvol=  2.6663072E+02 bohr^3
 Angles (23,13,12)=  6.00000000E+01  6.00000000E+01  6.00000000E+01 degrees

 getcut: wavevector=  0.0000  0.0000  0.0000  ngfft=  16  16  16
         ecut(hartree)=      6.000   => boxcut(ratio)=   2.00850

--- Pseudopotential description ------------------------------------------------
- pspini: atom type   1  psp file is /Users/gmatteo/git_repos/abipy/abipy/data/pseudos/14si.pspnc
- pspatm: opening atomic psp file    /Users/gmatteo/git_repos/abipy/abipy/data/pseudos/14si.pspnc
-  Troullier-Martins psp for element  Si        Thu Oct 27 17:31:21 EDT 1994
- 14.00000   4.00000    940714                znucl, zion, pspdat
    1    1    2    2      2001   0.00000      pspcod,pspxc,lmax,lloc,mmax,r2well
    0   5.907  14.692    1   2.0872718        l,e99.0,e99.9,nproj,rcpsp
   0.00000000   0.00000000   0.00000000   0.00000000     rms, ekb1, ekb2, epsatm
    1   2.617   4.181    1   2.0872718        l,e99.0,e99.9,nproj,rcpsp
   0.00000000   0.00000000   0.00000000   0.00000000     rms, ekb1, ekb2, epsatm
    2   0.000   0.000    0   2.0872718        l,e99.0,e99.9,nproj,rcpsp
   0.00000000   0.00000000   0.00000000   0.00000000     rms, ekb1, ekb2, epsatm
    1.80626423934776    0.22824404341771    1.17378968127746   rchrg,fchrg,qchrg
  pspatm : epsatm=    1.43386982
         --- l  ekb(1:nproj) -->
             0    3.287949
             1    1.849886
 pspatm: atomic psp has been read  and splines computed

--------------------------------------------------------------------------------


================================================================================
 prteigrs : about to open file /Users/gmatteo/git_repos/abitutorials/abitutorials/bse/flow_bse/w0/t1/outdata/out_EIG
 Non-SCF case, kpt    1 (  0.01833  0.03500  0.05167), residuals and eigenvalues=
  1.72E-09  5.77E-09  2.52E-09  2.98E-09  4.80E-09  4.17E-09  5.89E-09  4.66E-09
  5.55E-10  5.90E-09  9.46E-10  3.04E-10  1.87E-10  6.49E-09  3.49E-10
 -2.2447E-01  2.1011E-01  2.1481E-01  2.1766E-01  3.1138E-01  3.1602E-01
  3.1679E-01  3.4529E-01  5.0438E-01  5.0652E-01  5.1337E-01  6.2997E-01
  6.3266E-01  6.3945E-01  7.7905E-01
 prteigrs : prtvol=0 or 1, do not print more k-points.

  prteigrs : nnsclo,ikpt=   30    2 max resid (incl. the buffer)=  2.13046E-07
  prteigrs : nnsclo,ikpt=   30    3 max resid (incl. the buffer)=  6.08190E-06
  prteigrs : nnsclo,ikpt=   30    4 max resid (incl. the buffer)=  8.92117E-05
  prteigrs : nnsclo,ikpt=   30    5 max resid (incl. the buffer)=  6.53298E-05
  prteigrs : nnsclo,ikpt=   30    6 max resid (incl. the buffer)=  2.89402E-07
  prteigrs : nnsclo,ikpt=   30    7 max resid (incl. the buffer)=  5.43921E-07
  prteigrs : nnsclo,ikpt=   30    8 max resid (incl. the buffer)=  2.92561E-05
  prteigrs : nnsclo,ikpt=   30    9 max resid (incl. the buffer)=  1.51650E-06
  prteigrs : nnsclo,ikpt=   30   10 max resid (incl. the buffer)=  5.26813E-06
  prteigrs : nnsclo,ikpt=   30   11 max resid (incl. the buffer)=  2.04242E-06
  prteigrs : nnsclo,ikpt=   30   12 max resid (incl. the buffer)=  5.62481E-08
  prteigrs : nnsclo,ikpt=   30   13 max resid (incl. the buffer)=  5.56073E-05
  prteigrs : nnsclo,ikpt=   30   14 max resid (incl. the buffer)=  2.57025E-08
  prteigrs : nnsclo,ikpt=   30   15 max resid (incl. the buffer)=  6.25035E-06
  prteigrs : nnsclo,ikpt=   30   16 max resid (incl. the buffer)=  5.83406E-06
  prteigrs : nnsclo,ikpt=   30   17 max resid (incl. the buffer)=  5.42771E-07
  prteigrs : nnsclo,ikpt=   30   18 max resid (incl. the buffer)=  1.69260E-06
  prteigrs : nnsclo,ikpt=   30   19 max resid (incl. the buffer)=  6.29956E-05
  prteigrs : nnsclo,ikpt=   30   20 max resid (incl. the buffer)=  2.19396E-06
  prteigrs : nnsclo,ikpt=   30   21 max resid (incl. the buffer)=  2.11483E-05
  prteigrs : nnsclo,ikpt=   30   22 max resid (incl. the buffer)=  3.26572E-05
  prteigrs : nnsclo,ikpt=   30   23 max resid (incl. the buffer)=  1.61229E-06
  prteigrs : nnsclo,ikpt=   30   24 max resid (incl. the buffer)=  5.38839E-06
  prteigrs : nnsclo,ikpt=   30   25 max resid (incl. the buffer)=  1.32426E-05
  prteigrs : nnsclo,ikpt=   30   26 max resid (incl. the buffer)=  1.87836E-07
  prteigrs : nnsclo,ikpt=   30   27 max resid (incl. the buffer)=  4.07032E-06
  prteigrs : nnsclo,ikpt=   30   28 max resid (incl. the buffer)=  1.92973E-04
  prteigrs : nnsclo,ikpt=   30   29 max resid (incl. the buffer)=  8.25945E-06
  prteigrs : nnsclo,ikpt=   30   30 max resid (incl. the buffer)=  2.21104E-06
  prteigrs : nnsclo,ikpt=   30   31 max resid (incl. the buffer)=  1.05436E-07
  prteigrs : nnsclo,ikpt=   30   32 max resid (incl. the buffer)=  4.67491E-07
  prteigrs : nnsclo,ikpt=   30   33 max resid (incl. the buffer)=  1.09577E-06
  prteigrs : nnsclo,ikpt=   30   34 max resid (incl. the buffer)=  1.82373E-05
  prteigrs : nnsclo,ikpt=   30   35 max resid (incl. the buffer)=  1.19845E-06
  prteigrs : nnsclo,ikpt=   30   36 max resid (incl. the buffer)=  2.54169E-05
  prteigrs : nnsclo,ikpt=   30   37 max resid (incl. the buffer)=  3.81516E-05
  prteigrs : nnsclo,ikpt=   30   38 max resid (incl. the buffer)=  8.61777E-05
  prteigrs : nnsclo,ikpt=   30   39 max resid (incl. the buffer)=  1.09167E-07
  prteigrs : nnsclo,ikpt=   30   40 max resid (incl. the buffer)=  1.72457E-05
  prteigrs : nnsclo,ikpt=   30   41 max resid (incl. the buffer)=  1.31086E-07
  prteigrs : nnsclo,ikpt=   30   42 max resid (incl. the buffer)=  2.29867E-06
  prteigrs : nnsclo,ikpt=   30   43 max resid (incl. the buffer)=  8.99832E-06
  prteigrs : nnsclo,ikpt=   30   44 max resid (incl. the buffer)=  1.66497E-05
  prteigrs : nnsclo,ikpt=   30   45 max resid (incl. the buffer)=  2.43584E-08
  prteigrs : nnsclo,ikpt=   30   46 max resid (incl. the buffer)=  3.87288E-07
  prteigrs : nnsclo,ikpt=   30   47 max resid (incl. the buffer)=  1.37125E-04
  prteigrs : nnsclo,ikpt=   30   48 max resid (incl. the buffer)=  1.60830E-07
  prteigrs : nnsclo,ikpt=   30   49 max resid (incl. the buffer)=  2.52886E-05
  prteigrs : nnsclo,ikpt=   30   50 max resid (incl. the buffer)=  6.09872E-06
  prteigrs : nnsclo,ikpt=   30   51 max resid (incl. the buffer)=  8.32808E-07
  prteigrs : nnsclo,ikpt=   30   52 max resid (incl. the buffer)=  2.42514E-05
  prteigrs : nnsclo,ikpt=   30   53 max resid (incl. the buffer)=  2.25016E-06
  prteigrs : nnsclo,ikpt=   30   54 max resid (incl. the buffer)=  5.43202E-07
  prteigrs : nnsclo,ikpt=   30   55 max resid (incl. the buffer)=  9.14755E-05
  prteigrs : nnsclo,ikpt=   30   56 max resid (incl. the buffer)=  6.85782E-08
  prteigrs : nnsclo,ikpt=   30   57 max resid (incl. the buffer)=  1.67042E-05
  prteigrs : nnsclo,ikpt=   30   58 max resid (incl. the buffer)=  4.87598E-05
  prteigrs : nnsclo,ikpt=   30   59 max resid (incl. the buffer)=  9.52959E-07
  prteigrs : nnsclo,ikpt=   30   60 max resid (incl. the buffer)=  1.62212E-05
  prteigrs : nnsclo,ikpt=   30   61 max resid (incl. the buffer)=  1.07596E-06
  prteigrs : nnsclo,ikpt=   30   62 max resid (incl. the buffer)=  4.79921E-05
  prteigrs : nnsclo,ikpt=   30   63 max resid (incl. the buffer)=  4.79408E-06
  prteigrs : nnsclo,ikpt=   30   64 max resid (incl. the buffer)=  3.13817E-05
  prteigrs : nnsclo,ikpt=   30   65 max resid (incl. the buffer)=  6.64976E-05
  prteigrs : nnsclo,ikpt=   30   66 max resid (incl. the buffer)=  8.35808E-07
  prteigrs : nnsclo,ikpt=   30   67 max resid (incl. the buffer)=  9.91409E-07
  prteigrs : nnsclo,ikpt=   30   68 max resid (incl. the buffer)=  2.00164E-08
  prteigrs : nnsclo,ikpt=   30   69 max resid (incl. the buffer)=  2.81707E-07
  prteigrs : nnsclo,ikpt=   30   70 max resid (incl. the buffer)=  3.35801E-06
  prteigrs : nnsclo,ikpt=   30   71 max resid (incl. the buffer)=  1.42162E-05
  prteigrs : nnsclo,ikpt=   30   72 max resid (incl. the buffer)=  5.76269E-07
  prteigrs : nnsclo,ikpt=   30   73 max resid (incl. the buffer)=  1.69068E-05
  prteigrs : nnsclo,ikpt=   30   74 max resid (incl. the buffer)=  2.96510E-08
  prteigrs : nnsclo,ikpt=   30   75 max resid (incl. the buffer)=  3.33172E-07
  prteigrs : nnsclo,ikpt=   30   77 max resid (incl. the buffer)=  6.46336E-07
  prteigrs : nnsclo,ikpt=   30   78 max resid (incl. the buffer)=  1.13850E-07
  prteigrs : nnsclo,ikpt=   30   79 max resid (incl. the buffer)=  4.71162E-07
  prteigrs : nnsclo,ikpt=   30   80 max resid (incl. the buffer)=  5.03479E-06
  prteigrs : nnsclo,ikpt=   30   81 max resid (incl. the buffer)=  8.19551E-08
  prteigrs : nnsclo,ikpt=   30   82 max resid (incl. the buffer)=  6.74391E-07
  prteigrs : nnsclo,ikpt=   30   83 max resid (incl. the buffer)=  9.46622E-07
  prteigrs : nnsclo,ikpt=   30   84 max resid (incl. the buffer)=  2.78755E-07
  prteigrs : nnsclo,ikpt=   30   85 max resid (incl. the buffer)=  4.11633E-06
  prteigrs : nnsclo,ikpt=   30   86 max resid (incl. the buffer)=  8.15661E-08
  prteigrs : nnsclo,ikpt=   30   87 max resid (incl. the buffer)=  4.60372E-06
  prteigrs : nnsclo,ikpt=   30   88 max resid (incl. the buffer)=  3.59625E-07
  prteigrs : nnsclo,ikpt=   30   89 max resid (incl. the buffer)=  2.71889E-04
  prteigrs : nnsclo,ikpt=   30   92 max resid (incl. the buffer)=  1.59908E-06
  prteigrs : nnsclo,ikpt=   30   93 max resid (incl. the buffer)=  2.66038E-07
  prteigrs : nnsclo,ikpt=   30   94 max resid (incl. the buffer)=  1.74891E-04
  prteigrs : nnsclo,ikpt=   30   95 max resid (incl. the buffer)=  4.52147E-06
  prteigrs : nnsclo,ikpt=   30   96 max resid (incl. the buffer)=  3.61247E-06
  prteigrs : nnsclo,ikpt=   30   97 max resid (incl. the buffer)=  1.12491E-05
  prteigrs : nnsclo,ikpt=   30   98 max resid (incl. the buffer)=  6.55658E-06
  prteigrs : nnsclo,ikpt=   30   99 max resid (incl. the buffer)=  4.89047E-07
  prteigrs : nnsclo,ikpt=   30  100 max resid (incl. the buffer)=  6.73948E-06
  prteigrs : nnsclo,ikpt=   30  101 max resid (incl. the buffer)=  1.94872E-05
  prteigrs : nnsclo,ikpt=   30  102 max resid (incl. the buffer)=  1.04480E-06
  prteigrs : nnsclo,ikpt=   30  103 max resid (incl. the buffer)=  4.01698E-07
  prteigrs : nnsclo,ikpt=   30  104 max resid (incl. the buffer)=  1.25332E-06
  prteigrs : nnsclo,ikpt=   30  105 max resid (incl. the buffer)=  1.14422E-08
  prteigrs : nnsclo,ikpt=   30  106 max resid (incl. the buffer)=  1.71724E-06
  prteigrs : nnsclo,ikpt=   30  107 max resid (incl. the buffer)=  5.17017E-05
  prteigrs : nnsclo,ikpt=   30  108 max resid (incl. the buffer)=  1.37358E-04
  prteigrs : nnsclo,ikpt=   30  109 max resid (incl. the buffer)=  5.78325E-06
  prteigrs : nnsclo,ikpt=   30  110 max resid (incl. the buffer)=  4.97259E-04
  prteigrs : nnsclo,ikpt=   30  111 max resid (incl. the buffer)=  1.22333E-07
  prteigrs : nnsclo,ikpt=   30  112 max resid (incl. the buffer)=  1.49688E-05
  prteigrs : nnsclo,ikpt=   30  113 max resid (incl. the buffer)=  2.98621E-06
  prteigrs : nnsclo,ikpt=   30  114 max resid (incl. the buffer)=  2.08084E-05
  prteigrs : nnsclo,ikpt=   30  115 max resid (incl. the buffer)=  8.64481E-05
  prteigrs : nnsclo,ikpt=   30  116 max resid (incl. the buffer)=  2.07700E-07
  prteigrs : nnsclo,ikpt=   30  117 max resid (incl. the buffer)=  3.18208E-06
  prteigrs : nnsclo,ikpt=   30  118 max resid (incl. the buffer)=  1.43743E-05
  prteigrs : nnsclo,ikpt=   30  119 max resid (incl. the buffer)=  3.66814E-06
  prteigrs : nnsclo,ikpt=   30  120 max resid (incl. the buffer)=  6.72676E-05
  prteigrs : nnsclo,ikpt=   30  121 max resid (incl. the buffer)=  3.88855E-08
  prteigrs : nnsclo,ikpt=   30  122 max resid (incl. the buffer)=  1.00102E-06
  prteigrs : nnsclo,ikpt=   30  123 max resid (incl. the buffer)=  8.55738E-07
  prteigrs : nnsclo,ikpt=   30  124 max resid (incl. the buffer)=  1.87986E-04
  prteigrs : nnsclo,ikpt=   30  125 max resid (incl. the buffer)=  5.73056E-07
  prteigrs : nnsclo,ikpt=   30  126 max resid (incl. the buffer)=  1.18444E-05
  prteigrs : nnsclo,ikpt=   30  127 max resid (incl. the buffer)=  2.08751E-05
  prteigrs : nnsclo,ikpt=   30  128 max resid (incl. the buffer)=  3.73661E-08
  prteigrs : nnsclo,ikpt=   30  129 max resid (incl. the buffer)=  2.26854E-05
  prteigrs : nnsclo,ikpt=   30  130 max resid (incl. the buffer)=  1.02858E-05
  prteigrs : nnsclo,ikpt=   30  131 max resid (incl. the buffer)=  2.15440E-05
  prteigrs : nnsclo,ikpt=   30  132 max resid (incl. the buffer)=  7.28901E-05
  prteigrs : nnsclo,ikpt=   30  133 max resid (incl. the buffer)=  9.08249E-06
  prteigrs : nnsclo,ikpt=   30  134 max resid (incl. the buffer)=  1.29513E-05
  prteigrs : nnsclo,ikpt=   30  135 max resid (incl. the buffer)=  9.47401E-07
  prteigrs : nnsclo,ikpt=   30  136 max resid (incl. the buffer)=  6.39098E-05
  prteigrs : nnsclo,ikpt=   30  137 max resid (incl. the buffer)=  1.40323E-06
  prteigrs : nnsclo,ikpt=   30  138 max resid (incl. the buffer)=  8.47169E-08
  prteigrs : nnsclo,ikpt=   30  139 max resid (incl. the buffer)=  3.92095E-04
  prteigrs : nnsclo,ikpt=   30  140 max resid (incl. the buffer)=  9.89307E-06
  prteigrs : nnsclo,ikpt=   30  141 max resid (incl. the buffer)=  7.24109E-06
  prteigrs : nnsclo,ikpt=   30  142 max resid (incl. the buffer)=  7.18396E-06
  prteigrs : nnsclo,ikpt=   30  143 max resid (incl. the buffer)=  2.13721E-07
  prteigrs : nnsclo,ikpt=   30  144 max resid (incl. the buffer)=  1.80071E-06
  prteigrs : nnsclo,ikpt=   30  145 max resid (incl. the buffer)=  1.94459E-06
  prteigrs : nnsclo,ikpt=   30  146 max resid (incl. the buffer)=  1.51405E-05
  prteigrs : nnsclo,ikpt=   30  147 max resid (incl. the buffer)=  7.95318E-06
  prteigrs : nnsclo,ikpt=   30  148 max resid (incl. the buffer)=  9.12198E-05
  prteigrs : nnsclo,ikpt=   30  149 max resid (incl. the buffer)=  3.71258E-06
  prteigrs : nnsclo,ikpt=   30  150 max resid (incl. the buffer)=  1.81362E-06
  prteigrs : nnsclo,ikpt=   30  151 max resid (incl. the buffer)=  3.99556E-05
  prteigrs : nnsclo,ikpt=   30  152 max resid (incl. the buffer)=  4.82157E-05
  prteigrs : nnsclo,ikpt=   30  153 max resid (incl. the buffer)=  1.39038E-06
  prteigrs : nnsclo,ikpt=   30  154 max resid (incl. the buffer)=  1.24793E-04
  prteigrs : nnsclo,ikpt=   30  155 max resid (incl. the buffer)=  4.65072E-04
  prteigrs : nnsclo,ikpt=   30  156 max resid (incl. the buffer)=  7.59289E-07
  prteigrs : nnsclo,ikpt=   30  157 max resid (incl. the buffer)=  8.90859E-05
  prteigrs : nnsclo,ikpt=   30  158 max resid (incl. the buffer)=  9.63134E-07
  prteigrs : nnsclo,ikpt=   30  159 max resid (incl. the buffer)=  1.13965E-08
  prteigrs : nnsclo,ikpt=   30  160 max resid (incl. the buffer)=  3.33157E-07
  prteigrs : nnsclo,ikpt=   30  161 max resid (incl. the buffer)=  4.07928E-05
  prteigrs : nnsclo,ikpt=   30  162 max resid (incl. the buffer)=  4.45176E-05
  prteigrs : nnsclo,ikpt=   30  163 max resid (incl. the buffer)=  3.39544E-06
  prteigrs : nnsclo,ikpt=   30  164 max resid (incl. the buffer)=  8.31673E-07
  prteigrs : nnsclo,ikpt=   30  165 max resid (incl. the buffer)=  1.52701E-06
  prteigrs : nnsclo,ikpt=   30  166 max resid (incl. the buffer)=  3.67978E-04
  prteigrs : nnsclo,ikpt=   30  167 max resid (incl. the buffer)=  1.68613E-06
  prteigrs : nnsclo,ikpt=   30  168 max resid (incl. the buffer)=  2.98069E-07
  prteigrs : nnsclo,ikpt=   30  169 max resid (incl. the buffer)=  3.50484E-05
  prteigrs : nnsclo,ikpt=   30  170 max resid (incl. the buffer)=  3.20302E-05
  prteigrs : nnsclo,ikpt=   30  171 max resid (incl. the buffer)=  1.72266E-05
  prteigrs : nnsclo,ikpt=   30  172 max resid (incl. the buffer)=  3.21103E-05
  prteigrs : nnsclo,ikpt=   30  173 max resid (incl. the buffer)=  2.52573E-05
  prteigrs : nnsclo,ikpt=   30  174 max resid (incl. the buffer)=  6.41791E-06
  prteigrs : nnsclo,ikpt=   30  175 max resid (incl. the buffer)=  1.90656E-05
  prteigrs : nnsclo,ikpt=   30  176 max resid (incl. the buffer)=  4.21437E-06
  prteigrs : nnsclo,ikpt=   30  177 max resid (incl. the buffer)=  9.12276E-06
  prteigrs : nnsclo,ikpt=   30  178 max resid (incl. the buffer)=  3.88273E-07
  prteigrs : nnsclo,ikpt=   30  179 max resid (incl. the buffer)=  7.27634E-06
  prteigrs : nnsclo,ikpt=   30  180 max resid (incl. the buffer)=  9.13029E-06
  prteigrs : nnsclo,ikpt=   30  182 max resid (incl. the buffer)=  2.16277E-07
  prteigrs : nnsclo,ikpt=   30  183 max resid (incl. the buffer)=  5.96434E-06
  prteigrs : nnsclo,ikpt=   30  184 max resid (incl. the buffer)=  2.27783E-06
  prteigrs : nnsclo,ikpt=   30  185 max resid (incl. the buffer)=  9.41736E-07
  prteigrs : nnsclo,ikpt=   30  186 max resid (incl. the buffer)=  1.52482E-06
  prteigrs : nnsclo,ikpt=   30  187 max resid (incl. the buffer)=  1.94225E-07
  prteigrs : nnsclo,ikpt=   30  188 max resid (incl. the buffer)=  9.93860E-07
  prteigrs : nnsclo,ikpt=   30  189 max resid (incl. the buffer)=  1.53221E-06
  prteigrs : nnsclo,ikpt=   30  190 max resid (incl. the buffer)=  5.60148E-06
  prteigrs : nnsclo,ikpt=   30  191 max resid (incl. the buffer)=  1.84919E-05
  prteigrs : nnsclo,ikpt=   30  192 max resid (incl. the buffer)=  1.06354E-06
  prteigrs : nnsclo,ikpt=   30  193 max resid (incl. the buffer)=  4.04118E-07
  prteigrs : nnsclo,ikpt=   30  194 max resid (incl. the buffer)=  3.33427E-06
  prteigrs : nnsclo,ikpt=   30  195 max resid (incl. the buffer)=  1.18547E-08
  prteigrs : nnsclo,ikpt=   30  196 max resid (incl. the buffer)=  6.65100E-05
  prteigrs : nnsclo,ikpt=   30  197 max resid (incl. the buffer)=  7.51432E-05
  prteigrs : nnsclo,ikpt=   30  198 max resid (incl. the buffer)=  1.40950E-05
  prteigrs : nnsclo,ikpt=   30  199 max resid (incl. the buffer)=  1.48973E-06
  prteigrs : nnsclo,ikpt=   30  200 max resid (incl. the buffer)=  1.30508E-06
  prteigrs : nnsclo,ikpt=   30  201 max resid (incl. the buffer)=  2.52544E-05
  prteigrs : nnsclo,ikpt=   30  202 max resid (incl. the buffer)=  1.37109E-07
  prteigrs : nnsclo,ikpt=   30  203 max resid (incl. the buffer)=  1.14966E-06
  prteigrs : nnsclo,ikpt=   30  204 max resid (incl. the buffer)=  8.07894E-07
  prteigrs : nnsclo,ikpt=   30  205 max resid (incl. the buffer)=  2.41214E-05
  prteigrs : nnsclo,ikpt=   30  206 max resid (incl. the buffer)=  9.05979E-07
  prteigrs : nnsclo,ikpt=   30  207 max resid (incl. the buffer)=  1.14342E-07
  prteigrs : nnsclo,ikpt=   30  208 max resid (incl. the buffer)=  1.15746E-06
  prteigrs : nnsclo,ikpt=   30  209 max resid (incl. the buffer)=  2.06603E-06
  prteigrs : nnsclo,ikpt=   30  210 max resid (incl. the buffer)=  2.09725E-07
  prteigrs : nnsclo,ikpt=   30  211 max resid (incl. the buffer)=  5.77155E-08
  prteigrs : nnsclo,ikpt=   30  212 max resid (incl. the buffer)=  7.87863E-07
  prteigrs : nnsclo,ikpt=   30  213 max resid (incl. the buffer)=  4.26386E-06
  prteigrs : nnsclo,ikpt=   30  214 max resid (incl. the buffer)=  1.78994E-06
  prteigrs : nnsclo,ikpt=   30  215 max resid (incl. the buffer)=  8.43308E-07

 Integrated electronic density in atomic spheres:
 ------------------------------------------------
 Atom  Sphere_radius  Integrated_density
    1        2.00000          1.84549712
    2        2.00000          1.84549712
================================================================================

 ----iterations are completed or convergence reached----

 Mean square residual over all n,k,spin=   1.7249E-06; max=  4.9726E-04
 reduced coordinates (array xred) for    2 atoms
       0.000000000000      0.000000000000      0.000000000000
       0.250000000000      0.250000000000      0.250000000000

 cartesian coordinates (angstrom) at end:
    1      0.00000000000000     0.00000000000000     0.00000000000000
    2      1.35165088504101     1.35165088504101     1.35165088504101
 length scales=  1.000000000000  1.000000000000  1.000000000000 bohr
              =  0.529177208590  0.529177208590  0.529177208590 angstroms
 prteigrs : about to open file /Users/gmatteo/git_repos/abitutorials/abitutorials/bse/flow_bse/w0/t1/outdata/out_EIG
 Eigenvalues (hartree) for nkpt= 216  k points:
 kpt#   1, nband= 15, wtk=  0.00463, kpt=  0.0183  0.0350  0.0517 (reduced coord)
  -0.22447    0.21011    0.21481    0.21766    0.31138    0.31602    0.31679    0.34529
   0.50438    0.50652    0.51337    0.62997    0.63266    0.63945    0.77905
 prteigrs : prtvol=0 or 1, do not print more k-points.


== END DATASET(S) ==============================================================
================================================================================
  
 -outvars: echo values of variables after computation  --------
            acell      1.0000000000E+00  1.0000000000E+00  1.0000000000E+00 Bohr
              amu      2.80855000E+01
      chksymbreak           0
           diemac      1.20000000E+01
             ecut      6.00000000E+00 Hartree
-          fftalg         112
           irdden           1
             iscf          -2
              kpt      1.83333333E-02  3.50000000E-02  5.16666667E-02
                       1.85000000E-01  3.50000000E-02  5.16666667E-02
                       3.51666667E-01  3.50000000E-02  5.16666667E-02
                      -4.81666667E-01  3.50000000E-02  5.16666667E-02
                      -3.15000000E-01  3.50000000E-02  5.16666667E-02
                      -1.48333333E-01  3.50000000E-02  5.16666667E-02
                       1.83333333E-02  2.01666667E-01  5.16666667E-02
                       1.85000000E-01  2.01666667E-01  5.16666667E-02
                       3.51666667E-01  2.01666667E-01  5.16666667E-02
                      -4.81666667E-01  2.01666667E-01  5.16666667E-02
                      -3.15000000E-01  2.01666667E-01  5.16666667E-02
                      -1.48333333E-01  2.01666667E-01  5.16666667E-02
                       1.83333333E-02  3.68333333E-01  5.16666667E-02
                       1.85000000E-01  3.68333333E-01  5.16666667E-02
                       3.51666667E-01  3.68333333E-01  5.16666667E-02
                      -4.81666667E-01  3.68333333E-01  5.16666667E-02
                      -3.15000000E-01  3.68333333E-01  5.16666667E-02
                      -1.48333333E-01  3.68333333E-01  5.16666667E-02
                       1.83333333E-02 -4.65000000E-01  5.16666667E-02
                       1.85000000E-01 -4.65000000E-01  5.16666667E-02
                       3.51666667E-01 -4.65000000E-01  5.16666667E-02
                      -4.81666667E-01 -4.65000000E-01  5.16666667E-02
                      -3.15000000E-01 -4.65000000E-01  5.16666667E-02
                      -1.48333333E-01 -4.65000000E-01  5.16666667E-02
                       1.83333333E-02 -2.98333333E-01  5.16666667E-02
                       1.85000000E-01 -2.98333333E-01  5.16666667E-02
                       3.51666667E-01 -2.98333333E-01  5.16666667E-02
                      -4.81666667E-01 -2.98333333E-01  5.16666667E-02
                      -3.15000000E-01 -2.98333333E-01  5.16666667E-02
                      -1.48333333E-01 -2.98333333E-01  5.16666667E-02
                       1.83333333E-02 -1.31666667E-01  5.16666667E-02
                       1.85000000E-01 -1.31666667E-01  5.16666667E-02
                       3.51666667E-01 -1.31666667E-01  5.16666667E-02
                      -4.81666667E-01 -1.31666667E-01  5.16666667E-02
                      -3.15000000E-01 -1.31666667E-01  5.16666667E-02
                      -1.48333333E-01 -1.31666667E-01  5.16666667E-02
                       1.83333333E-02  3.50000000E-02  2.18333333E-01
                       1.85000000E-01  3.50000000E-02  2.18333333E-01
                       3.51666667E-01  3.50000000E-02  2.18333333E-01
                      -4.81666667E-01  3.50000000E-02  2.18333333E-01
                      -3.15000000E-01  3.50000000E-02  2.18333333E-01
                      -1.48333333E-01  3.50000000E-02  2.18333333E-01
                       1.83333333E-02  2.01666667E-01  2.18333333E-01
                       1.85000000E-01  2.01666667E-01  2.18333333E-01
                       3.51666667E-01  2.01666667E-01  2.18333333E-01
                      -4.81666667E-01  2.01666667E-01  2.18333333E-01
                      -3.15000000E-01  2.01666667E-01  2.18333333E-01
                      -1.48333333E-01  2.01666667E-01  2.18333333E-01
                       1.83333333E-02  3.68333333E-01  2.18333333E-01
                       1.85000000E-01  3.68333333E-01  2.18333333E-01
                       outvar_i_n : Printing only first  50 k-points.
         kptrlatt        6    0    0      0    6    0      0    0    6
          kptrlen      4.33470599E+01
P           mkmem         108
            natom           2
            nband          15
           nbdbuf           2
            ngfft          16      16      16
             nkpt         216
             nsym          48
           ntypat           1
            rprim      0.0000000000E+00  5.1085000000E+00  5.1085000000E+00
                       5.1085000000E+00  0.0000000000E+00  5.1085000000E+00
                       5.1085000000E+00  5.1085000000E+00  0.0000000000E+00
           shiftk      1.10000000E-01  2.10000000E-01  3.10000000E-01
          spgroup         227
           symrel      1  0  0   0  1  0   0  0  1      -1  0  0   0 -1  0   0  0 -1
                       0 -1  1   0 -1  0   1 -1  0       0  1 -1   0  1  0  -1  1  0
                      -1  0  0  -1  0  1  -1  1  0       1  0  0   1  0 -1   1 -1  0
                       0  1 -1   1  0 -1   0  0 -1       0 -1  1  -1  0  1   0  0  1
                      -1  0  0  -1  1  0  -1  0  1       1  0  0   1 -1  0   1  0 -1
                       0 -1  1   1 -1  0   0 -1  0       0  1 -1  -1  1  0   0  1  0
                       1  0  0   0  0  1   0  1  0      -1  0  0   0  0 -1   0 -1  0
                       0  1 -1   0  0 -1   1  0 -1       0 -1  1   0  0  1  -1  0  1
                      -1  0  1  -1  1  0  -1  0  0       1  0 -1   1 -1  0   1  0  0
                       0 -1  0   1 -1  0   0 -1  1       0  1  0  -1  1  0   0  1 -1
                       1  0 -1   0  0 -1   0  1 -1      -1  0  1   0  0  1   0 -1  1
                       0  1  0   0  0  1   1  0  0       0 -1  0   0  0 -1  -1  0  0
                       1  0 -1   0  1 -1   0  0 -1      -1  0  1   0 -1  1   0  0  1
                       0 -1  0   0 -1  1   1 -1  0       0  1  0   0  1 -1  -1  1  0
                      -1  0  1  -1  0  0  -1  1  0       1  0 -1   1  0  0   1 -1  0
                       0  1  0   1  0  0   0  0  1       0 -1  0  -1  0  0   0  0 -1
                       0  0 -1   0  1 -1   1  0 -1       0  0  1   0 -1  1  -1  0  1
                       1 -1  0   0 -1  1   0 -1  0      -1  1  0   0  1 -1   0  1  0
                       0  0  1   1  0  0   0  1  0       0  0 -1  -1  0  0   0 -1  0
                      -1  1  0  -1  0  0  -1  0  1       1 -1  0   1  0  0   1  0 -1
                       0  0  1   0  1  0   1  0  0       0  0 -1   0 -1  0  -1  0  0
                       1 -1  0   0 -1  0   0 -1  1      -1  1  0   0  1  0   0  1 -1
                       0  0 -1   1  0 -1   0  1 -1       0  0  1  -1  0  1   0 -1  1
                      -1  1  0  -1  0  1  -1  0  0       1 -1  0   1  0 -1   1  0  0
            tnons      0.0000000  0.0000000  0.0000000     0.2500000  0.2500000  0.2500000
                       0.0000000  0.0000000  0.0000000     0.2500000  0.2500000  0.2500000
                       0.0000000  0.0000000  0.0000000     0.2500000  0.2500000  0.2500000
                       0.0000000  0.0000000  0.0000000     0.2500000  0.2500000  0.2500000
                       0.0000000  0.0000000  0.0000000     0.2500000  0.2500000  0.2500000
                       0.0000000  0.0000000  0.0000000     0.2500000  0.2500000  0.2500000
                       0.0000000  0.0000000  0.0000000     0.2500000  0.2500000  0.2500000
                       0.0000000  0.0000000  0.0000000     0.2500000  0.2500000  0.2500000
                       0.0000000  0.0000000  0.0000000     0.2500000  0.2500000  0.2500000
                       0.0000000  0.0000000  0.0000000     0.2500000  0.2500000  0.2500000
                       0.0000000  0.0000000  0.0000000     0.2500000  0.2500000  0.2500000
                       0.0000000  0.0000000  0.0000000     0.2500000  0.2500000  0.2500000
                       0.0000000  0.0000000  0.0000000     0.2500000  0.2500000  0.2500000
                       0.0000000  0.0000000  0.0000000     0.2500000  0.2500000  0.2500000
                       0.0000000  0.0000000  0.0000000     0.2500000  0.2500000  0.2500000
                       0.0000000  0.0000000  0.0000000     0.2500000  0.2500000  0.2500000
                       0.0000000  0.0000000  0.0000000     0.2500000  0.2500000  0.2500000
                       0.0000000  0.0000000  0.0000000     0.2500000  0.2500000  0.2500000
                       0.0000000  0.0000000  0.0000000     0.2500000  0.2500000  0.2500000
                       0.0000000  0.0000000  0.0000000     0.2500000  0.2500000  0.2500000
                       0.0000000  0.0000000  0.0000000     0.2500000  0.2500000  0.2500000
                       0.0000000  0.0000000  0.0000000     0.2500000  0.2500000  0.2500000
                       0.0000000  0.0000000  0.0000000     0.2500000  0.2500000  0.2500000
                       0.0000000  0.0000000  0.0000000     0.2500000  0.2500000  0.2500000
           tolwfr      1.00000000E-08
            typat      1  1
              wtk        0.00463    0.00463    0.00463    0.00463    0.00463    0.00463
                         0.00463    0.00463    0.00463    0.00463    0.00463    0.00463
                         0.00463    0.00463    0.00463    0.00463    0.00463    0.00463
                         0.00463    0.00463    0.00463    0.00463    0.00463    0.00463
                         0.00463    0.00463    0.00463    0.00463    0.00463    0.00463
                         0.00463    0.00463    0.00463    0.00463    0.00463    0.00463
                         0.00463    0.00463    0.00463    0.00463    0.00463    0.00463
                         0.00463    0.00463    0.00463    0.00463    0.00463    0.00463
                         0.00463    0.00463
                       outvars : Printing only first  50 k-points.
           xangst      0.0000000000E+00  0.0000000000E+00  0.0000000000E+00
                       1.3516508850E+00  1.3516508850E+00  1.3516508850E+00
            xcart      0.0000000000E+00  0.0000000000E+00  0.0000000000E+00
                       2.5542500000E+00  2.5542500000E+00  2.5542500000E+00
             xred      0.0000000000E+00  0.0000000000E+00  0.0000000000E+00
                       2.5000000000E-01  2.5000000000E-01  2.5000000000E-01
            znucl       14.00000

================================================================================


- Timing analysis has been suppressed with timopt=0



================================================================================

 Suggested references for the acknowledgment of ABINIT usage.

 The users of ABINIT have little formal obligations with respect to the ABINIT group
 (those specified in the GNU General Public License, http://www.gnu.org/copyleft/gpl.txt).
 However, it is common practice in the scientific literature,
 to acknowledge the efforts of people that have made the research possible.
 In this spirit, please find below suggested citations of work written by ABINIT developers,
 corresponding to implementations inside of ABINIT that you have used in the present run.
 Note also that it will be of great value to readers of publications presenting these results,
 to read papers enabling them to understand the theoretical formalism and details
 of the ABINIT implementation.
 For information on why they are suggested, see also http://www.abinit.org/about/?text=acknowledgments.
-
- [1] Recent developments in the ABINIT software package.
- Computer Phys. Comm. 205, 106 (2016).
- X.Gonze, F.Jollet, F.Abreu Araujo, D.Adams, B.Amadon, T.Applencourt,
- C.Audouze, J.-M.Beuken, J.Bieder, A.Bokhanchuk, E.Bousquet, F.Bruneval
- D.Caliste, M.Cote, F.Dahm, F.Da Pieve, M.Delaveau, M.Di Gennaro,
- B.Dorado, C.Espejo, G.Geneste, L.Genovese, A.Gerossier, M.Giantomassi,
- Y.Gillet, D.R.Hamann, L.He, G.Jomard, J.Laflamme Janssen, S.Le Roux,
- A.Levitt, A.Lherbier, F.Liu, I.Lukacevic, A.Martin, C.Martins,
- M.J.T.Oliveira, S.Ponce, Y.Pouillon, T.Rangel, G.-M.Rignanese,
- A.H.Romero, B.Rousseau, O.Rubel, A.A.Shukri, M.Stankovski, M.Torrent,
- M.J.Van Setten, B.Van Troeye, M.J.Verstraete, D.Waroquier, J.Wiktor,
- B.Xue, A.Zhou, J.W.Zwanziger.
- Comment : the fourth generic paper describing the ABINIT project.
- Note that a version of this paper, that is not formatted for Computer Phys. Comm. 
- is available at http://www.abinit.org/about/ABINIT16.pdf .
- The licence allows the authors to put it on the Web.
-
- [2] ABINIT : First-principles approach of materials and nanosystem properties.
- Computer Phys. Comm. 180, 2582-2615 (2009).
- X. Gonze, B. Amadon, P.-M. Anglade, J.-M. Beuken, F. Bottin, P. Boulanger, F. Bruneval,
- D. Caliste, R. Caracas, M. Cote, T. Deutsch, L. Genovese, Ph. Ghosez, M. Giantomassi
- S. Goedecker, D.R. Hamann, P. Hermet, F. Jollet, G. Jomard, S. Leroux, M. Mancini, S. Mazevet,
- M.J.T. Oliveira, G. Onida, Y. Pouillon, T. Rangel, G.-M. Rignanese, D. Sangalli, R. Shaltaf,
- M. Torrent, M.J. Verstraete, G. Zerah, J.W. Zwanziger
- Comment : the third generic paper describing the ABINIT project.
- Note that a version of this paper, that is not formatted for Computer Phys. Comm. 
- is available at http://www.abinit.org/about/ABINIT_CPC_v10.pdf .
- The licence allows the authors to put it on the Web.
-
- [3] A brief introduction to the ABINIT software package.
- Z. Kristallogr. 220, 558-562 (2005).
- X. Gonze, G.-M. Rignanese, M. Verstraete, J.-M. Beuken, Y. Pouillon, R. Caracas, F. Jollet,
- M. Torrent, G. Zerah, M. Mikami, Ph. Ghosez, M. Veithen, J.-Y. Raty, V. Olevano, F. Bruneval,
- L. Reining, R. Godby, G. Onida, D.R. Hamann, and D.C. Allan.
- Comment : the second generic paper describing the ABINIT project. Note that this paper
- should be cited especially if you are using the GW part of ABINIT, as several authors
- of this part are not in the list of authors of the first or third paper.
- The .pdf of the latter paper is available at http://www.abinit.org/about/zfk_0505-06_558-562.pdf.
- Note that it should not redistributed (Copyright by Oldenburg Wissenshaftverlag,
- the licence allows the authors to put it on the Web).
-
- And optionally:
-
- [4] First-principles computation of material properties : the ABINIT software project. 
- X. Gonze, J.-M. Beuken, R. Caracas, F. Detraux, M. Fuchs, G.-M. Rignanese, L. Sindic,
- M. Verstraete, G. Zerah, F. Jollet, M. Torrent, A. Roy, M. Mikami, Ph. Ghosez, J.-Y. Raty, D.C. Allan.
- Computational Materials Science 25, 478-492 (2002). http://dx.doi.org/10.1016/S0927-0256(02)00325-7
- Comment : the original paper describing the ABINIT project.
-
- Proc.   0 individual time (sec): cpu=          5.9  wall=          6.4

================================================================================

 Calculation completed.
.Delivered   0 WARNINGs and   0 COMMENTs to log file.
+Overall time at end (sec) : cpu=         11.7  wall=         12.7
