
.Version 9.3.0 of ABINIT 
.(MPI version, prepared for a x86_64_darwin18.7.0_gnu8.2 computer) 

.Copyright (C) 1998-2020 ABINIT group . 
 ABINIT comes with ABSOLUTELY NO WARRANTY.
 It is free software, and you are welcome to redistribute it
 under certain conditions (GNU General Public License,
 see ~abinit/COPYING or http://www.gnu.org/copyleft/gpl.txt).

 ABINIT is a project of the Universite Catholique de Louvain,
 Corning Inc. and other collaborators, see ~abinit/doc/developers/contributors.txt .
 Please read https://docs.abinit.org/theory/acknowledgments for suggested
 acknowledgments of the ABINIT effort.
 For more information, see https://www.abinit.org .

.Starting date : Wed 30 Sep 2020.
- ( at 03h44 )
  
- input  file    -> /Users/gmatteo/git_repos/abitutorials/abitutorials/sigeph/flow_diamond/w0/t1/run.abi
- output file    -> /Users/gmatteo/git_repos/abitutorials/abitutorials/sigeph/flow_diamond/w0/t1/run.abo
- root for input  files -> /Users/gmatteo/git_repos/abitutorials/abitutorials/sigeph/flow_diamond/w0/t1/indata/in
- root for output files -> /Users/gmatteo/git_repos/abitutorials/abitutorials/sigeph/flow_diamond/w0/t1/outdata/out


 Symmetries : space group Fd -3 m (#227); Bravais cF (face-center cubic)
================================================================================
 Values of the parameters that define the memory need of the present run
     intxc =       0    ionmov =       0      iscf =      -2    lmnmax =       1
     lnmax =       1     mgfft =      24  mpssoang =       2    mqgrid =    3001
     natom =       2  nloc_mem =       1    nspden =       1   nspinor =       1
    nsppol =       1      nsym =      48    n1xccc =    2501    ntypat =       1
    occopt =       1   xclevel =       1
-    mband =           8        mffmem =           1         mkmem =          99
       mpw =         465          nfft =       13824          nkpt =         198
================================================================================
P This job should need less than                       9.533 Mbytes of memory.
  Rough estimation (10% accuracy) of disk space for files :
_ WF disk file :     11.241 Mbytes ; DEN or POT disk file :      0.107 Mbytes.
================================================================================

--------------------------------------------------------------------------------
------------- Echo of variables that govern the present computation ------------
--------------------------------------------------------------------------------
-
- outvars: echo of selected default values                                      
-   iomode0 =  0 , fftalg0 =312 , wfoptalg0 =  0
-
- outvars: echo of global parameters not present in the input file              
-  max_nthreads =    0
-
 -outvars: echo values of preprocessed input variables --------
-          iomode           1
            acell      1.0000000000E+00  1.0000000000E+00  1.0000000000E+00 Bohr
              amu      1.20110000E+01
     densfor_pred           6
             ecut      2.50000000E+01 Hartree
-          fftalg         312
           irdden           1
             iscf          -2
           istwfk        2    0    0    0    0    0    0    0    0    0
                         0    0    0    0    0    0    0    0    0    0
                         0    0    0    0    0    0    0    0    1    0
                         0    0    0    0    0    0    0    0    0    0
                         0    0    0    0    0    0    0    0    0    0
                       outvar_i_n : Printing only first  50 k-points.
              kpt      0.00000000E+00  0.00000000E+00  0.00000000E+00
                       1.78571429E-02  0.00000000E+00  1.78571429E-02
                       3.57142857E-02  0.00000000E+00  3.57142857E-02
                       5.35714286E-02  0.00000000E+00  5.35714286E-02
                       7.14285714E-02  0.00000000E+00  7.14285714E-02
                       8.92857143E-02  0.00000000E+00  8.92857143E-02
                       1.07142857E-01  0.00000000E+00  1.07142857E-01
                       1.25000000E-01  0.00000000E+00  1.25000000E-01
                       1.42857143E-01  0.00000000E+00  1.42857143E-01
                       1.60714286E-01  0.00000000E+00  1.60714286E-01
                       1.78571429E-01  0.00000000E+00  1.78571429E-01
                       1.96428571E-01  0.00000000E+00  1.96428571E-01
                       2.14285714E-01  0.00000000E+00  2.14285714E-01
                       2.32142857E-01  0.00000000E+00  2.32142857E-01
                       2.50000000E-01  0.00000000E+00  2.50000000E-01
                       2.67857143E-01  0.00000000E+00  2.67857143E-01
                       2.85714286E-01  0.00000000E+00  2.85714286E-01
                       3.03571429E-01  0.00000000E+00  3.03571429E-01
                       3.21428571E-01  0.00000000E+00  3.21428571E-01
                       3.39285714E-01  0.00000000E+00  3.39285714E-01
                       3.57142857E-01  0.00000000E+00  3.57142857E-01
                       3.75000000E-01  0.00000000E+00  3.75000000E-01
                       3.92857143E-01  0.00000000E+00  3.92857143E-01
                       4.10714286E-01  0.00000000E+00  4.10714286E-01
                       4.28571429E-01  0.00000000E+00  4.28571429E-01
                       4.46428571E-01  0.00000000E+00  4.46428571E-01
                       4.64285714E-01  0.00000000E+00  4.64285714E-01
                       4.82142857E-01  0.00000000E+00  4.82142857E-01
                       5.00000000E-01  0.00000000E+00  5.00000000E-01
                       5.00000000E-01  1.78571429E-02  5.17857143E-01
                       5.00000000E-01  3.57142857E-02  5.35714286E-01
                       5.00000000E-01  5.35714286E-02  5.53571429E-01
                       5.00000000E-01  7.14285714E-02  5.71428571E-01
                       5.00000000E-01  8.92857143E-02  5.89285714E-01
                       5.00000000E-01  1.07142857E-01  6.07142857E-01
                       5.00000000E-01  1.25000000E-01  6.25000000E-01
                       5.00000000E-01  1.42857143E-01  6.42857143E-01
                       5.00000000E-01  1.60714286E-01  6.60714286E-01
                       5.00000000E-01  1.78571429E-01  6.78571429E-01
                       5.00000000E-01  1.96428571E-01  6.96428571E-01
                       5.00000000E-01  2.14285714E-01  7.14285714E-01
                       5.00000000E-01  2.32142857E-01  7.32142857E-01
                       5.00000000E-01  2.50000000E-01  7.50000000E-01
                       4.87500000E-01  2.62500000E-01  7.50000000E-01
                       4.75000000E-01  2.75000000E-01  7.50000000E-01
                       4.62500000E-01  2.87500000E-01  7.50000000E-01
                       4.50000000E-01  3.00000000E-01  7.50000000E-01
                       4.37500000E-01  3.12500000E-01  7.50000000E-01
                       4.25000000E-01  3.25000000E-01  7.50000000E-01
                       4.12500000E-01  3.37500000E-01  7.50000000E-01
                       outvar_i_n : Printing only first  50 k-points.
           kptopt         -11
P           mkmem          99
            natom           2
            nband           8
           nbdbuf           2
           ndivsm          10
            ngfft          24      24      24
             nkpt         198
-           npkpt           2
             nsym          48
           ntypat           1
           ortalg          -2
        paral_kgb           1
            rprim      0.0000000000E+00  3.3517340250E+00  3.3517340250E+00
                       3.3517340250E+00  0.0000000000E+00  3.3517340250E+00
                       3.3517340250E+00  3.3517340250E+00  0.0000000000E+00
           shiftk      5.00000000E-01  5.00000000E-01  5.00000000E-01
          spgroup         227
           symrel      1  0  0   0  1  0   0  0  1      -1  0  0   0 -1  0   0  0 -1
                       0 -1  1   0 -1  0   1 -1  0       0  1 -1   0  1  0  -1  1  0
                      -1  0  0  -1  0  1  -1  1  0       1  0  0   1  0 -1   1 -1  0
                       0  1 -1   1  0 -1   0  0 -1       0 -1  1  -1  0  1   0  0  1
                      -1  0  0  -1  1  0  -1  0  1       1  0  0   1 -1  0   1  0 -1
                       0 -1  1   1 -1  0   0 -1  0       0  1 -1  -1  1  0   0  1  0
                       1  0  0   0  0  1   0  1  0      -1  0  0   0  0 -1   0 -1  0
                       0  1 -1   0  0 -1   1  0 -1       0 -1  1   0  0  1  -1  0  1
                      -1  0  1  -1  1  0  -1  0  0       1  0 -1   1 -1  0   1  0  0
                       0 -1  0   1 -1  0   0 -1  1       0  1  0  -1  1  0   0  1 -1
                       1  0 -1   0  0 -1   0  1 -1      -1  0  1   0  0  1   0 -1  1
                       0  1  0   0  0  1   1  0  0       0 -1  0   0  0 -1  -1  0  0
                       1  0 -1   0  1 -1   0  0 -1      -1  0  1   0 -1  1   0  0  1
                       0 -1  0   0 -1  1   1 -1  0       0  1  0   0  1 -1  -1  1  0
                      -1  0  1  -1  0  0  -1  1  0       1  0 -1   1  0  0   1 -1  0
                       0  1  0   1  0  0   0  0  1       0 -1  0  -1  0  0   0  0 -1
                       0  0 -1   0  1 -1   1  0 -1       0  0  1   0 -1  1  -1  0  1
                       1 -1  0   0 -1  1   0 -1  0      -1  1  0   0  1 -1   0  1  0
                       0  0  1   1  0  0   0  1  0       0  0 -1  -1  0  0   0 -1  0
                      -1  1  0  -1  0  0  -1  0  1       1 -1  0   1  0  0   1  0 -1
                       0  0  1   0  1  0   1  0  0       0  0 -1   0 -1  0  -1  0  0
                       1 -1  0   0 -1  0   0 -1  1      -1  1  0   0  1  0   0  1 -1
                       0  0 -1   1  0 -1   0  1 -1       0  0  1  -1  0  1   0 -1  1
                      -1  1  0  -1  0  1  -1  0  0       1 -1  0   1  0 -1   1  0  0
            tnons      0.0000000  0.0000000  0.0000000     0.2500000  0.2500000  0.2500000
                       0.0000000  0.0000000  0.0000000     0.2500000  0.2500000  0.2500000
                       0.0000000  0.0000000  0.0000000     0.2500000  0.2500000  0.2500000
                       0.0000000  0.0000000  0.0000000     0.2500000  0.2500000  0.2500000
                       0.0000000  0.0000000  0.0000000     0.2500000  0.2500000  0.2500000
                       0.0000000  0.0000000  0.0000000     0.2500000  0.2500000  0.2500000
                       0.0000000  0.0000000  0.0000000     0.2500000  0.2500000  0.2500000
                       0.0000000  0.0000000  0.0000000     0.2500000  0.2500000  0.2500000
                       0.0000000  0.0000000  0.0000000     0.2500000  0.2500000  0.2500000
                       0.0000000  0.0000000  0.0000000     0.2500000  0.2500000  0.2500000
                       0.0000000  0.0000000  0.0000000     0.2500000  0.2500000  0.2500000
                       0.0000000  0.0000000  0.0000000     0.2500000  0.2500000  0.2500000
                       0.0000000  0.0000000  0.0000000     0.2500000  0.2500000  0.2500000
                       0.0000000  0.0000000  0.0000000     0.2500000  0.2500000  0.2500000
                       0.0000000  0.0000000  0.0000000     0.2500000  0.2500000  0.2500000
                       0.0000000  0.0000000  0.0000000     0.2500000  0.2500000  0.2500000
                       0.0000000  0.0000000  0.0000000     0.2500000  0.2500000  0.2500000
                       0.0000000  0.0000000  0.0000000     0.2500000  0.2500000  0.2500000
                       0.0000000  0.0000000  0.0000000     0.2500000  0.2500000  0.2500000
                       0.0000000  0.0000000  0.0000000     0.2500000  0.2500000  0.2500000
                       0.0000000  0.0000000  0.0000000     0.2500000  0.2500000  0.2500000
                       0.0000000  0.0000000  0.0000000     0.2500000  0.2500000  0.2500000
                       0.0000000  0.0000000  0.0000000     0.2500000  0.2500000  0.2500000
                       0.0000000  0.0000000  0.0000000     0.2500000  0.2500000  0.2500000
           tolwfr      1.00000000E-16
            typat      1  1
         wfoptalg         114
                       outvars : Printing only first  50 k-points.
           xangst      0.0000000000E+00  0.0000000000E+00  0.0000000000E+00
                       8.8683062764E-01  8.8683062764E-01  8.8683062764E-01
            xcart      0.0000000000E+00  0.0000000000E+00  0.0000000000E+00
                       1.6758670125E+00  1.6758670125E+00  1.6758670125E+00
             xred      0.0000000000E+00  0.0000000000E+00  0.0000000000E+00
                       2.5000000000E-01  2.5000000000E-01  2.5000000000E-01
            znucl        6.00000

================================================================================

 chkinp: Checking input parameters for consistency.

================================================================================
== DATASET  1 ==================================================================
-   mpi_nproc: 2, omp_nthreads: -1 (-1 if OMP is not activated)


--- !DatasetInfo
iteration_state: {dtset: 1, }
dimensions: {natom: 2, nkpt: 198, mband: 8, nsppol: 1, nspinor: 1, nspden: 1, mpw: 465, }
cutoff_energies: {ecut:  25.0, pawecutdg:  -1.0, }
electrons: {nelect:   8.00000000E+00, charge:   0.00000000E+00, occopt:   1.00000000E+00, tsmear:   1.00000000E-02, }
meta: {optdriver: 0, ionmov: 0, optcell: 0, iscf: -2, paral_kgb: 1, }
...

 Exchange-correlation functional for the present dataset will be:
  LDA: new Teter (4/93) with spin-polarized option - ixc=1
 Citation for XC functional:
  S. Goedecker, M. Teter, J. Huetter, PRB 54, 1703 (1996)

 Real(R)+Recip(G) space primitive vectors, cartesian coordinates (Bohr,Bohr^-1):
 R(1)=  0.0000000  3.3517340  3.3517340  G(1)= -0.1491765  0.1491765  0.1491765
 R(2)=  3.3517340  0.0000000  3.3517340  G(2)=  0.1491765 -0.1491765  0.1491765
 R(3)=  3.3517340  3.3517340  0.0000000  G(3)=  0.1491765  0.1491765 -0.1491765
 Unit cell volume ucvol=  7.5307571E+01 bohr^3
 Angles (23,13,12)=  6.00000000E+01  6.00000000E+01  6.00000000E+01 degrees

 getcut: wavevector=  0.0000  0.0000  0.0000  ngfft=  24  24  24
         ecut(hartree)=     25.000   => boxcut(ratio)=   2.24953

 getcut : COMMENT -
  Note that boxcut > 2.2 ; recall that boxcut=Gcut(box)/Gcut(sphere) = 2
  is sufficient for exact treatment of convolution.
  Such a large boxcut is a waste : you could raise ecut
  e.g. ecut=   31.627375 Hartrees makes boxcut=2


--- Pseudopotential description ------------------------------------------------
- pspini: atom type   1  psp file is /Users/gmatteo/git_repos/abitutorials/abitutorials/sigeph/6c.pspnc
- pspatm: opening atomic psp file    /Users/gmatteo/git_repos/abitutorials/abitutorials/sigeph/6c.pspnc
-  Troullier-Martins psp for element  C         Thu Oct 27 17:29:33 EDT 1994
-  6.00000   4.00000    940714                znucl, zion, pspdat
    1    1    1    1      2001   0.00000      pspcod,pspxc,lmax,lloc,mmax,r2well
    0  10.372  24.987    1   1.4850707        l,e99.0,e99.9,nproj,rcpsp
   0.00000000   0.00000000   0.00000000   0.00000000     rms, ekb1, ekb2, epsatm
    1  15.431  21.987    0   1.4850707        l,e99.0,e99.9,nproj,rcpsp
   0.00000000   0.00000000   0.00000000   0.00000000     rms, ekb1, ekb2, epsatm
    0.83985002509544    0.99012430797080    0.51184907750884   rchrg,fchrg,qchrg
  pspatm : epsatm=    0.92590353
         --- l  ekb(1:nproj) -->
             0    4.921466
 pspatm: atomic psp has been read  and splines computed

--------------------------------------------------------------------------------


================================================================================
 prteigrs : about to open file /Users/gmatteo/git_repos/abitutorials/abitutorials/sigeph/flow_diamond/w0/t1/outdata/out_EIG
 Non-SCF case, kpt    1 (  0.00000  0.00000  0.00000), residuals and eigenvalues=
  5.55E-20  1.14E-18  8.42E-19  2.86E-19  1.57E-19  1.40E-19  1.73E-19  2.02E-19
 -3.2325E-01  4.6831E-01  4.6831E-01  4.6831E-01  6.7474E-01  6.7474E-01
  6.7474E-01  9.8020E-01
 Non-SCF case, kpt    2 (  0.01786  0.00000  0.01786), residuals and eigenvalues=
  1.87E-19  4.79E-19  1.19E-19  1.15E-18  5.13E-20  2.62E-20  9.86E-20  1.51E-19
 -3.2281E-01  4.6642E-01  4.6642E-01  4.6729E-01  6.7440E-01  6.7701E-01
  6.7701E-01  9.8046E-01
 Non-SCF case, kpt    3 (  0.03571  0.00000  0.03571), residuals and eigenvalues=
  2.06E-19  5.27E-19  3.37E-19  1.15E-18  5.57E-20  2.23E-20  1.08E-19  3.09E-19
 -3.2149E-01  4.6098E-01  4.6098E-01  4.6425E-01  6.7341E-01  6.8358E-01
  6.8358E-01  9.8116E-01
 Non-SCF case, kpt    4 (  0.05357  0.00000  0.05357), residuals and eigenvalues=
  1.77E-19  7.60E-19  9.05E-19  4.24E-19  2.03E-19  3.49E-20  1.39E-19  3.93E-19
 -3.1928E-01  4.5263E-01  4.5263E-01  4.5925E-01  6.7196E-01  6.9388E-01
  6.9388E-01  9.8201E-01
 Non-SCF case, kpt    5 (  0.07143  0.00000  0.07143), residuals and eigenvalues=
  2.13E-19  7.18E-18  5.93E-18  4.75E-18  2.01E-18  5.06E-19  1.30E-19  3.12E-18
 -3.1619E-01  4.4211E-01  4.4211E-01  4.5237E-01  6.6981E-01  7.0713E-01
  7.0713E-01  9.8251E-01
 Non-SCF case, kpt    6 (  0.08929  0.00000  0.08929), residuals and eigenvalues=
  2.20E-19  4.58E-18  1.11E-19  3.78E-19  4.39E-19  1.57E-19  1.71E-19  9.14E-19
 -3.1224E-01  4.3009E-01  4.3009E-01  4.4354E-01  6.6693E-01  7.2244E-01
  7.2244E-01  9.8193E-01
 Non-SCF case, kpt    7 (  0.10714  0.00000  0.10714), residuals and eigenvalues=
  6.10E-19  1.71E-18  2.73E-18  1.07E-18  1.58E-18  2.41E-19  2.55E-19  9.94E-19
 -3.0742E-01  4.1718E-01  4.1718E-01  4.3320E-01  6.6371E-01  7.3934E-01
  7.3934E-01  9.7938E-01
 Non-SCF case, kpt    8 (  0.12500  0.00000  0.12500), residuals and eigenvalues=
  3.05E-19  2.25E-18  2.37E-19  7.86E-19  7.55E-19  5.95E-20  2.10E-19  8.08E-19
 -3.0171E-01  4.0381E-01  4.0381E-01  4.2143E-01  6.6022E-01  7.5763E-01
  7.5763E-01  9.7390E-01
 Non-SCF case, kpt    9 (  0.14286  0.00000  0.14286), residuals and eigenvalues=
  3.42E-19  2.31E-18  3.21E-19  1.05E-18  2.20E-18  1.42E-19  5.58E-19  8.96E-19
 -2.9515E-01  3.9024E-01  3.9024E-01  4.0828E-01  6.5648E-01  7.7663E-01
  7.7663E-01  9.6468E-01
 Non-SCF case, kpt   10 (  0.16071  0.00000  0.16071), residuals and eigenvalues=
  3.95E-19  1.89E-18  3.39E-19  1.12E-18  8.17E-18  1.41E-18  1.09E-18  8.55E-19
 -2.8773E-01  3.7671E-01  3.7671E-01  3.9387E-01  6.5260E-01  7.9627E-01
  7.9627E-01  9.5146E-01
 Non-SCF case, kpt   11 (  0.17857  0.00000  0.17857), residuals and eigenvalues=
  4.91E-19  9.67E-19  1.33E-19  8.55E-19  5.99E-17  6.00E-18  1.57E-17  6.36E-19
 -2.7946E-01  3.6340E-01  3.6340E-01  3.7832E-01  6.4867E-01  8.1634E-01
  8.1634E-01  9.3463E-01
 Non-SCF case, kpt   12 (  0.19643  0.00000  0.19643), residuals and eigenvalues=
  2.18E-18  3.35E-19  5.12E-19  1.10E-18  1.72E-18  2.84E-19  3.14E-19  3.54E-19
 -2.7034E-01  3.5034E-01  3.5034E-01  3.6169E-01  6.4469E-01  8.3656E-01
  8.3656E-01  9.1502E-01
 Non-SCF case, kpt   13 (  0.21429  0.00000  0.21429), residuals and eigenvalues=
  1.00E-18  1.66E-19  1.18E-19  4.20E-18  3.44E-18  1.29E-18  6.05E-19  1.01E-18
 -2.6037E-01  3.3782E-01  3.3782E-01  3.4421E-01  6.4093E-01  8.5709E-01
  8.5709E-01  8.9377E-01
 Non-SCF case, kpt   14 (  0.23214  0.00000  0.23214), residuals and eigenvalues=
  3.00E-18  1.91E-19  9.38E-19  2.40E-18  1.78E-18  7.62E-19  7.20E-19  5.40E-19
 -2.4958E-01  3.2579E-01  3.2582E-01  3.2582E-01  6.3731E-01  8.7160E-01
  8.7763E-01  8.7763E-01
 Non-SCF case, kpt   15 (  0.25000  0.00000  0.25000), residuals and eigenvalues=
  3.32E-18  1.59E-19  5.49E-19  1.40E-18  1.89E-18  4.11E-19  8.83E-19  5.17E-19
 -2.3796E-01  3.0658E-01  3.1440E-01  3.1440E-01  6.3397E-01  8.4930E-01
  8.9809E-01  8.9809E-01
 Non-SCF case, kpt   16 (  0.26786  0.00000  0.26786), residuals and eigenvalues=
  3.63E-18  1.76E-19  3.31E-19  8.24E-19  1.36E-18  3.91E-19  8.48E-19  3.60E-19
 -2.2553E-01  2.8668E-01  3.0362E-01  3.0362E-01  6.3095E-01  8.2739E-01
  9.1839E-01  9.1839E-01
 Non-SCF case, kpt   17 (  0.28571  0.00000  0.28571), residuals and eigenvalues=
  2.78E-18  1.95E-19  2.65E-19  7.26E-20  1.47E-18  7.97E-18  9.37E-18  2.32E-17
 -2.1227E-01  2.6616E-01  2.9353E-01  2.9353E-01  6.2836E-01  8.0627E-01
  9.3858E-01  9.3858E-01
 Non-SCF case, kpt   18 (  0.30357  0.00000  0.30357), residuals and eigenvalues=
  1.23E-18  1.07E-18  7.09E-19  3.31E-19  3.02E-19  2.80E-19  4.84E-19  3.36E-19
 -1.9825E-01  2.4509E-01  2.8415E-01  2.8415E-01  6.2618E-01  7.8614E-01
  9.5830E-01  9.5830E-01
 Non-SCF case, kpt   19 (  0.32143  0.00000  0.32143), residuals and eigenvalues=
  1.33E-18  2.35E-18  2.23E-18  9.13E-19  7.43E-20  4.15E-19  5.43E-19  1.28E-18
 -1.8346E-01  2.2356E-01  2.7550E-01  2.7550E-01  6.2451E-01  7.6712E-01
  9.7741E-01  9.7741E-01
 Non-SCF case, kpt   20 (  0.33929  0.00000  0.33929), residuals and eigenvalues=
  1.55E-18  6.40E-18  5.57E-18  1.70E-18  8.43E-20  6.39E-19  5.09E-19  2.02E-18
 -1.6792E-01  2.0165E-01  2.6760E-01  2.6760E-01  6.2338E-01  7.4933E-01
  9.9584E-01  9.9584E-01
 Non-SCF case, kpt   21 (  0.35714  0.00000  0.35714), residuals and eigenvalues=
  2.01E-18  1.22E-17  9.74E-18  2.39E-18  1.94E-19  1.01E-18  1.22E-18  2.67E-18
 -1.5165E-01  1.7946E-01  2.6049E-01  2.6049E-01  6.2286E-01  7.3283E-01
  1.0134E+00  1.0134E+00
 Non-SCF case, kpt   22 (  0.37500  0.00000  0.37500), residuals and eigenvalues=
  2.98E-18  1.65E-17  1.36E-17  4.99E-19  4.79E-19  1.55E-18  2.91E-18  6.52E-18
 -1.3466E-01  1.5693E-01  2.5419E-01  2.5419E-01  6.2298E-01  7.1762E-01
  1.0299E+00  1.0299E+00
 Non-SCF case, kpt   23 (  0.39286  0.00000  0.39286), residuals and eigenvalues=
  5.58E-18  2.54E-17  1.19E-17  2.42E-18  9.52E-19  1.22E-18  2.15E-17  1.18E-17
 -1.1699E-01  1.3439E-01  2.4869E-01  2.4869E-01  6.2378E-01  7.0371E-01
  1.0451E+00  1.0451E+00
 Non-SCF case, kpt   24 (  0.41071  0.00000  0.41071), residuals and eigenvalues=
  1.59E-18  3.47E-17  2.27E-17  2.73E-18  5.03E-19  2.79E-18  4.55E-17  3.23E-17
 -9.8656E-02  1.1186E-01  2.4403E-01  2.4403E-01  6.2532E-01  6.9107E-01
  1.0587E+00  1.0587E+00
 Non-SCF case, kpt   25 (  0.42857  0.00000  0.42857), residuals and eigenvalues=
  4.75E-18  2.71E-17  2.45E-17  1.23E-18  2.88E-18  1.29E-18  6.95E-17  6.95E-17
 -7.9699E-02  8.9401E-02  2.4020E-01  2.4020E-01  6.2765E-01  6.7968E-01
  1.0704E+00  1.0704E+00
 Non-SCF case, kpt   26 (  0.44643  0.00000  0.44643), residuals and eigenvalues=
  5.61E-18  1.59E-17  1.90E-17  1.40E-18  2.28E-18  8.28E-19  1.28E-16  9.18E-17
 -6.0150E-02  6.7079E-02  2.3721E-01  2.3721E-01  6.3080E-01  6.6948E-01
  1.0800E+00  1.0800E+00
  prteigrs : nnsclo,ikpt=   30   26 max resid (incl. the buffer)=  1.27825E-16
 Non-SCF case, kpt   27 (  0.46429  0.00000  0.46429), residuals and eigenvalues=
  1.96E-18  2.52E-17  2.01E-17  2.56E-18  3.42E-18  6.16E-19  1.72E-16  9.60E-17
 -4.0048E-02  4.4971E-02  2.3507E-01  2.3507E-01  6.3481E-01  6.6043E-01
  1.0871E+00  1.0871E+00
  prteigrs : nnsclo,ikpt=   30   27 max resid (incl. the buffer)=  1.71537E-16
 Non-SCF case, kpt   28 (  0.48214  0.00000  0.48214), residuals and eigenvalues=
  2.93E-18  2.28E-17  1.37E-17  3.31E-18  4.43E-18  4.26E-19  1.41E-16  4.19E-17
 -1.9438E-02  2.3147E-02  2.3379E-01  2.3379E-01  6.3974E-01  6.5249E-01
  1.0914E+00  1.0914E+00
  prteigrs : nnsclo,ikpt=   30   28 max resid (incl. the buffer)=  1.41433E-16
 Non-SCF case, kpt   29 (  0.50000  0.00000  0.50000), residuals and eigenvalues=
  9.00E-21  3.71E-19  2.85E-19  1.58E-19  3.10E-20  1.84E-20  4.89E-20  6.14E-19
  1.6741E-03  1.6741E-03  2.3338E-01  2.3338E-01  6.4563E-01  6.4563E-01
  1.0930E+00  1.0930E+00
 Non-SCF case, kpt   30 (  0.50000  0.01786  0.51786), residuals and eigenvalues=
  5.21E-17  5.55E-17  1.77E-17  6.35E-17  1.18E-17  3.39E-18  3.42E-17  2.57E-16
  1.9465E-03  1.9465E-03  2.3237E-01  2.3237E-01  6.4741E-01  6.4741E-01
  1.0921E+00  1.0921E+00
  prteigrs : nnsclo,ikpt=   30   30 max resid (incl. the buffer)=  2.57078E-16
 Non-SCF case, kpt   31 (  0.50000  0.03571  0.53571), residuals and eigenvalues=
  8.88E-17  3.81E-17  3.39E-17  5.89E-17  1.65E-17  4.00E-18  7.69E-18  3.55E-16
  2.8258E-03  2.8258E-03  2.2945E-01  2.2945E-01  6.5275E-01  6.5275E-01
  1.0896E+00  1.0896E+00
  prteigrs : nnsclo,ikpt=   30   31 max resid (incl. the buffer)=  3.54631E-16
 Non-SCF case, kpt   32 (  0.50000  0.05357  0.55357), residuals and eigenvalues=
  9.44E-17  6.78E-17  7.17E-17  6.20E-17  1.82E-17  1.16E-17  9.32E-17  4.73E-17
  4.2709E-03  4.2709E-03  2.2477E-01  2.2477E-01  6.6143E-01  6.6143E-01
  1.0853E+00  1.0853E+00
 Non-SCF case, kpt   33 (  0.50000  0.07143  0.57143), residuals and eigenvalues=
  9.96E-17  5.40E-17  7.67E-17  5.35E-17  2.24E-17  1.35E-17  4.03E-17  2.01E-17
  6.2568E-03  6.2568E-03  2.1867E-01  2.1867E-01  6.7317E-01  6.7317E-01
  1.0790E+00  1.0790E+00
 Non-SCF case, kpt   34 (  0.50000  0.08929  0.58929), residuals and eigenvalues=
  9.29E-17  4.41E-17  7.65E-17  4.51E-17  2.33E-17  1.51E-17  1.88E-17  9.76E-18
  8.7375E-03  8.7375E-03  2.1147E-01  2.1147E-01  6.8762E-01  6.8762E-01
  1.0707E+00  1.0707E+00
 Non-SCF case, kpt   35 (  0.50000  0.10714  0.60714), residuals and eigenvalues=
  9.55E-17  1.95E-17  8.71E-17  2.55E-17  2.83E-17  1.42E-17  2.76E-16  2.44E-16
  1.1652E-02  1.1652E-02  2.0351E-01  2.0351E-01  7.0448E-01  7.0448E-01
  1.0602E+00  1.0602E+00
  prteigrs : nnsclo,ikpt=   30   35 max resid (incl. the buffer)=  2.76467E-16
 Non-SCF case, kpt   36 (  0.50000  0.12500  0.62500), residuals and eigenvalues=
  7.33E-17  1.73E-17  8.15E-17  2.02E-17  2.12E-17  1.53E-17  3.53E-16  3.96E-15
  1.4913E-02  1.4913E-02  1.9517E-01  1.9517E-01  7.2325E-01  7.2325E-01
  1.0473E+00  1.0473E+00
  prteigrs : nnsclo,ikpt=   30   36 max resid (incl. the buffer)=  3.95745E-15
 Non-SCF case, kpt   37 (  0.50000  0.14286  0.64286), residuals and eigenvalues=
  3.32E-19  8.55E-20  1.64E-19  4.44E-19  5.75E-20  4.15E-20  4.49E-19  2.41E-19
  1.8413E-02  1.8413E-02  1.8681E-01  1.8681E-01  7.4364E-01  7.4364E-01
  1.0323E+00  1.0323E+00
 Non-SCF case, kpt   38 (  0.50000  0.16071  0.66071), residuals and eigenvalues=
  3.15E-19  1.40E-20  1.59E-19  3.55E-19  6.55E-20  5.19E-20  2.06E-19  7.31E-20
  2.1993E-02  2.1993E-02  1.7882E-01  1.7882E-01  7.6530E-01  7.6530E-01
  1.0151E+00  1.0151E+00
 Non-SCF case, kpt   39 (  0.50000  0.17857  0.67857), residuals and eigenvalues=
  2.88E-17  1.26E-18  5.25E-18  2.86E-17  2.20E-17  2.69E-17  1.63E-16  1.14E-16
  2.5454E-02  2.5454E-02  1.7147E-01  1.7147E-01  7.8763E-01  7.8763E-01
  9.9599E-01  9.9599E-01
  prteigrs : nnsclo,ikpt=   30   39 max resid (incl. the buffer)=  1.63362E-16
 Non-SCF case, kpt   40 (  0.50000  0.19643  0.69643), residuals and eigenvalues=
  1.24E-17  4.34E-18  1.45E-17  4.88E-18  5.19E-18  2.03E-18  3.04E-17  3.12E-17
  2.8579E-02  2.8579E-02  1.6522E-01  1.6522E-01  8.1010E-01  8.1010E-01
  9.7587E-01  9.7587E-01
 Non-SCF case, kpt   41 (  0.50000  0.21429  0.71429), residuals and eigenvalues=
  1.03E-17  2.88E-18  1.16E-17  4.62E-18  2.92E-18  2.45E-18  1.23E-17  1.32E-17
  3.1096E-02  3.1096E-02  1.6041E-01  1.6041E-01  8.3160E-01  8.3160E-01
  9.5604E-01  9.5604E-01
 Non-SCF case, kpt   42 (  0.50000  0.23214  0.73214), residuals and eigenvalues=
  4.08E-18  2.87E-18  4.96E-18  7.43E-18  1.42E-18  1.15E-18  5.69E-18  7.39E-18
  3.2763E-02  3.2763E-02  1.5738E-01  1.5738E-01  8.4962E-01  8.4962E-01
  9.3912E-01  9.3912E-01
 Non-SCF case, kpt   43 (  0.50000  0.25000  0.75000), residuals and eigenvalues=
  2.51E-17  4.18E-18  1.53E-17  2.08E-17  8.51E-19  1.40E-18  2.46E-17  4.38E-18
  3.3339E-02  3.3339E-02  1.5634E-01  1.5634E-01  8.5756E-01  8.5756E-01
  9.3153E-01  9.3153E-01
 Non-SCF case, kpt   44 (  0.48750  0.26250  0.75000), residuals and eigenvalues=
  2.39E-18  3.20E-18  4.04E-18  2.25E-18  7.79E-18  5.61E-18  1.77E-17  6.15E-17
  2.6392E-02  3.9140E-02  1.4948E-01  1.6528E-01  8.4345E-01  8.6279E-01
  9.3533E-01  9.3671E-01
 Non-SCF case, kpt   45 (  0.47500  0.27500  0.75000), residuals and eigenvalues=
  9.03E-18  2.80E-18  4.87E-18  8.01E-18  3.81E-18  1.24E-18  1.15E-17  8.40E-17
  2.0166E-02  4.2275E-02  1.4326E-01  1.7735E-01  8.2017E-01  8.6620E-01
  9.4148E-01  9.5127E-01
 Non-SCF case, kpt   46 (  0.46250  0.28750  0.75000), residuals and eigenvalues=
  6.91E-18  5.40E-19  5.36E-18  1.90E-18  7.40E-18  6.04E-18  6.62E-17  3.30E-16
  1.4658E-02  4.3482E-02  1.3769E-01  1.9158E-01  7.9438E-01  8.6800E-01
  9.4957E-01  9.6878E-01
  prteigrs : nnsclo,ikpt=   30   46 max resid (incl. the buffer)=  3.30285E-16
 Non-SCF case, kpt   47 (  0.45000  0.30000  0.75000), residuals and eigenvalues=
  3.05E-18  4.79E-18  5.48E-18  3.47E-18  2.44E-17  1.61E-17  3.20E-16  3.77E-15
  9.8955E-03  4.3483E-02  1.3281E-01  2.0695E-01  7.6874E-01  8.6868E-01
  9.5911E-01  9.8678E-01
  prteigrs : nnsclo,ikpt=   30   47 max resid (incl. the buffer)=  3.76867E-15
 Non-SCF case, kpt   48 (  0.43750  0.31250  0.75000), residuals and eigenvalues=
  1.26E-18  8.73E-19  1.50E-18  1.50E-18  1.56E-18  8.47E-18  7.31E-16  3.27E-14
  5.8561E-03  4.2809E-02  1.2864E-01  2.2235E-01  7.4454E-01  8.6859E-01
  9.6904E-01  1.0040E+00
  prteigrs : nnsclo,ikpt=   30   48 max resid (incl. the buffer)=  3.26755E-14
 Non-SCF case, kpt   49 (  0.42500  0.32500  0.75000), residuals and eigenvalues=
  5.18E-18  5.89E-18  6.36E-17  6.28E-17  4.80E-18  8.53E-18  1.78E-15  6.79E-14
  2.5551E-03  4.1878E-02  1.2523E-01  2.3690E-01  7.2292E-01  8.6824E-01
  9.7901E-01  1.0197E+00
  prteigrs : nnsclo,ikpt=   30   49 max resid (incl. the buffer)=  6.79208E-14
 Non-SCF case, kpt   50 (  0.41250  0.33750  0.75000), residuals and eigenvalues=
  7.82E-18  6.84E-18  8.59E-17  8.87E-17  3.34E-18  1.22E-17  1.01E-15  1.71E-13
 -1.4284E-05  4.0945E-02  1.2255E-01  2.4963E-01  7.0472E-01  8.6773E-01
  9.8796E-01  1.0329E+00
  prteigrs : nnsclo,ikpt=   30   50 max resid (incl. the buffer)=  1.70933E-13
 Non-SCF case, kpt   51 (  0.40000  0.35000  0.75000), residuals and eigenvalues=
  9.65E-18  8.17E-18  7.86E-17  8.58E-17  3.82E-18  1.20E-17  7.20E-15  1.24E-12
 -1.8503E-03  4.0180E-02  1.2062E-01  2.5962E-01  6.9084E-01  8.6728E-01
  9.9525E-01  1.0429E+00
  prteigrs : nnsclo,ikpt=   30   51 max resid (incl. the buffer)=  1.24120E-12
 Non-SCF case, kpt   52 (  0.38750  0.36250  0.75000), residuals and eigenvalues=
  5.64E-18  3.27E-18  2.57E-17  2.58E-17  2.84E-18  1.40E-17  1.32E-14  6.21E-12
 -2.9519E-03  3.9685E-02  1.1946E-01  2.6601E-01  6.8209E-01  8.6698E-01
  1.0001E+00  1.0494E+00
  prteigrs : nnsclo,ikpt=   30   52 max resid (incl. the buffer)=  6.21496E-12
 Non-SCF case, kpt   53 (  0.37500  0.37500  0.75000), residuals and eigenvalues=
  1.06E-17  8.55E-18  1.66E-17  2.07E-17  4.88E-18  1.60E-17  2.37E-13  2.54E-11
 -3.3137E-03  3.9536E-02  1.1908E-01  2.6828E-01  6.7913E-01  8.6688E-01
  1.0018E+00  1.0516E+00
  prteigrs : nnsclo,ikpt=   30   53 max resid (incl. the buffer)=  2.53883E-11
 Non-SCF case, kpt   54 (  0.36250  0.36250  0.72500), residuals and eigenvalues=
  2.19E-20  4.21E-21  5.16E-20  6.52E-20  1.34E-21  1.46E-19  7.65E-16  4.78E-14
 -1.2520E-02  4.7435E-02  1.1448E-01  2.7525E-01  6.8595E-01  8.9986E-01
  9.8609E-01  1.0446E+00
  prteigrs : nnsclo,ikpt=   30   54 max resid (incl. the buffer)=  4.78213E-14
 Non-SCF case, kpt   55 (  0.35000  0.35000  0.70000), residuals and eigenvalues=
  1.57E-21  9.21E-21  2.79E-20  4.92E-20  3.46E-21  7.10E-19  3.94E-16  1.98E-12
 -2.4725E-02  5.6065E-02  1.1383E-01  2.8278E-01  6.9332E-01  9.3230E-01
  9.6989E-01  1.0378E+00
  prteigrs : nnsclo,ikpt=   30   55 max resid (incl. the buffer)=  1.98288E-12
 Non-SCF case, kpt   56 (  0.33750  0.33750  0.67500), residuals and eigenvalues=
  1.00E-21  1.59E-20  2.53E-20  5.66E-20  8.64E-21  2.40E-17  6.49E-15  6.22E-13
 -3.9216E-02  6.5421E-02  1.1652E-01  2.9079E-01  7.0118E-01  9.5339E-01
  9.6277E-01  1.0310E+00
  prteigrs : nnsclo,ikpt=   30   56 max resid (incl. the buffer)=  6.21777E-13
 Non-SCF case, kpt   57 (  0.32500  0.32500  0.65000), residuals and eigenvalues=
  1.15E-22  1.17E-23  1.57E-22  1.22E-22  2.10E-23  8.18E-17  3.04E-15  6.94E-13
 -5.5195E-02  7.5496E-02  1.2185E-01  2.9924E-01  7.0949E-01  9.3672E-01
  9.8799E-01  1.0242E+00
  prteigrs : nnsclo,ikpt=   30   57 max resid (incl. the buffer)=  6.93533E-13
 Non-SCF case, kpt   58 (  0.31250  0.31250  0.62500), residuals and eigenvalues=
  3.19E-20  5.78E-21  6.59E-20  4.06E-20  1.54E-20  9.62E-17  4.51E-14  1.11E-14
 -7.2016E-02  8.6279E-02  1.2920E-01  3.0806E-01  7.1816E-01  9.1992E-01
  1.0003E+00  1.0175E+00
  prteigrs : nnsclo,ikpt=   30   58 max resid (incl. the buffer)=  4.50522E-14
 Non-SCF case, kpt   59 (  0.30000  0.30000  0.60000), residuals and eigenvalues=
  2.49E-20  1.66E-21  5.05E-20  2.96E-20  1.80E-20  6.71E-18  7.98E-15  5.25E-14
 -8.9186E-02  9.7766E-02  1.3817E-01  3.1724E-01  7.2713E-01  9.0328E-01
  9.9566E-01  1.0111E+00
  prteigrs : nnsclo,ikpt=   30   59 max resid (incl. the buffer)=  5.25102E-14
 Non-SCF case, kpt   60 (  0.28750  0.28750  0.57500), residuals and eigenvalues=
  1.36E-17  5.78E-18  3.62E-18  3.89E-18  6.04E-18  5.35E-17  8.90E-14  8.59E-14
 -1.0638E-01  1.1000E-01  1.4848E-01  3.2672E-01  7.3632E-01  8.8682E-01
  9.8178E-01  1.0050E+00
  prteigrs : nnsclo,ikpt=   30   60 max resid (incl. the buffer)=  8.90141E-14
 Non-SCF case, kpt   61 (  0.27500  0.27500  0.55000), residuals and eigenvalues=
  1.19E-17  5.42E-18  3.15E-18  1.64E-18  5.04E-18  1.58E-17  2.73E-15  6.69E-15
 -1.2338E-01  1.2286E-01  1.5988E-01  3.3638E-01  7.4549E-01  8.7063E-01
  9.6469E-01  9.9925E-01
  prteigrs : nnsclo,ikpt=   30   61 max resid (incl. the buffer)=  6.68909E-15
 Non-SCF case, kpt   62 (  0.26250  0.26250  0.52500), residuals and eigenvalues=
  1.32E-17  5.94E-18  3.39E-18  1.43E-18  4.29E-18  7.56E-18  4.70E-17  1.25E-15
 -1.4002E-01  1.3640E-01  1.7221E-01  3.4617E-01  7.5456E-01  8.5478E-01
  9.4649E-01  9.9389E-01
  prteigrs : nnsclo,ikpt=   30   62 max resid (incl. the buffer)=  1.25096E-15
 Non-SCF case, kpt   63 (  0.25000  0.25000  0.50000), residuals and eigenvalues=
  9.27E-18  3.01E-18  4.23E-18  5.45E-18  9.07E-19  6.66E-18  9.14E-18  3.34E-15
 -1.5621E-01  1.5059E-01  1.8542E-01  3.5601E-01  7.6321E-01  8.3934E-01
  9.2827E-01  9.8926E-01
  prteigrs : nnsclo,ikpt=   30   63 max resid (incl. the buffer)=  3.33744E-15
 Non-SCF case, kpt   64 (  0.23750  0.23750  0.47500), residuals and eigenvalues=
  6.74E-18  2.26E-18  4.26E-18  5.77E-18  8.64E-19  1.61E-18  3.68E-18  5.13E-17
 -1.7182E-01  1.6541E-01  1.9939E-01  3.6583E-01  7.7125E-01  8.2437E-01
  9.1026E-01  9.8539E-01
 Non-SCF case, kpt   65 (  0.22500  0.22500  0.45000), residuals and eigenvalues=
  6.44E-18  3.45E-18  3.73E-17  1.90E-17  1.43E-18  7.45E-19  3.82E-18  1.94E-17
 -1.8683E-01  1.8085E-01  2.1405E-01  3.7551E-01  7.7834E-01  8.0989E-01
  8.9252E-01  9.8234E-01
 Non-SCF case, kpt   66 (  0.21250  0.21250  0.42500), residuals and eigenvalues=
  5.39E-18  3.05E-18  3.66E-17  1.89E-17  1.19E-18  2.89E-19  2.45E-18  1.75E-17
 -2.0115E-01  1.9689E-01  2.2931E-01  3.8503E-01  7.8424E-01  7.9603E-01
  8.7528E-01  9.8039E-01
 Non-SCF case, kpt   67 (  0.20000  0.20000  0.40000), residuals and eigenvalues=
  4.44E-18  2.58E-18  3.36E-17  1.72E-17  5.04E-20  1.16E-18  1.43E-18  2.20E-17
 -2.1477E-01  2.1350E-01  2.4512E-01  3.9428E-01  7.8278E-01  7.8859E-01
  8.5850E-01  9.7953E-01
 Non-SCF case, kpt   68 (  0.18750  0.18750  0.37500), residuals and eigenvalues=
  2.92E-18  1.23E-17  6.18E-19  7.97E-18  5.14E-19  8.02E-19  7.76E-19  2.18E-17
 -2.2765E-01  2.3064E-01  2.6140E-01  4.0313E-01  7.7018E-01  7.9113E-01
  8.4213E-01  9.7962E-01
 Non-SCF case, kpt   69 (  0.17500  0.17500  0.35000), residuals and eigenvalues=
  6.19E-18  5.53E-18  7.21E-18  7.78E-18  7.98E-19  1.38E-18  1.19E-18  3.44E-18
 -2.3979E-01  2.4828E-01  2.7808E-01  4.1157E-01  7.5823E-01  7.9167E-01
  8.2632E-01  9.8070E-01
 Non-SCF case, kpt   70 (  0.16250  0.16250  0.32500), residuals and eigenvalues=
  5.47E-18  4.98E-18  6.39E-18  7.50E-18  2.30E-18  1.48E-18  2.01E-18  3.10E-18
 -2.5113E-01  2.6638E-01  2.9510E-01  4.1954E-01  7.4705E-01  7.9011E-01
  8.1099E-01  9.8255E-01
 Non-SCF case, kpt   71 (  0.15000  0.15000  0.30000), residuals and eigenvalues=
  4.94E-18  5.02E-18  3.95E-18  4.84E-18  9.76E-19  7.80E-19  8.07E-19  3.11E-18
 -2.6168E-01  2.8487E-01  3.1235E-01  4.2696E-01  7.3660E-01  7.8647E-01
  7.9611E-01  9.8472E-01
 Non-SCF case, kpt   72 (  0.13750  0.13750  0.27500), residuals and eigenvalues=
  9.38E-19  4.25E-19  3.18E-19  4.33E-19  1.00E-19  1.18E-19  6.99E-20  3.58E-19
 -2.7143E-01  3.0376E-01  3.2982E-01  4.3388E-01  7.2700E-01  7.8089E-01
  7.8168E-01  9.8675E-01
 Non-SCF case, kpt   73 (  0.12500  0.12500  0.25000), residuals and eigenvalues=
  6.85E-19  2.70E-19  2.00E-19  2.74E-19  1.36E-19  3.73E-20  1.02E-19  2.40E-19
 -2.8036E-01  3.2282E-01  3.4721E-01  4.4009E-01  7.1811E-01  7.6770E-01
  7.7342E-01  9.8835E-01
 Non-SCF case, kpt   74 (  0.11250  0.11250  0.22500), residuals and eigenvalues=
  9.70E-19  2.27E-18  2.58E-19  3.37E-18  3.79E-19  1.03E-19  3.50E-19  2.09E-18
 -2.8846E-01  3.4199E-01  3.6448E-01  4.4566E-01  7.1001E-01  7.5417E-01
  7.6426E-01  9.8912E-01
 Non-SCF case, kpt   75 (  0.10000  0.10000  0.20000), residuals and eigenvalues=
  1.85E-18  2.07E-18  3.40E-18  2.50E-18  1.80E-19  1.18E-19  1.14E-19  5.22E-18
 -2.9574E-01  3.6115E-01  3.8145E-01  4.5057E-01  7.0250E-01  7.4111E-01
  7.5361E-01  9.8918E-01
 Non-SCF case, kpt   76 (  0.08750  0.08750  0.17500), residuals and eigenvalues=
  8.45E-19  6.26E-19  5.90E-19  1.03E-18  5.84E-20  9.06E-20  1.27E-19  3.25E-18
 -3.0216E-01  3.8011E-01  3.9791E-01  4.5492E-01  6.9611E-01  7.2862E-01
  7.4199E-01  9.8849E-01
 Non-SCF case, kpt   77 (  0.07500  0.07500  0.15000), residuals and eigenvalues=
  5.27E-19  4.69E-19  4.57E-19  3.31E-18  1.21E-19  6.32E-20  1.32E-19  3.83E-18
 -3.0774E-01  3.9859E-01  4.1361E-01  4.5857E-01  6.9050E-01  7.1675E-01
  7.2952E-01  9.8723E-01
 Non-SCF case, kpt   78 (  0.06250  0.06250  0.12500), residuals and eigenvalues=
  2.23E-19  7.22E-18  1.99E-18  4.79E-19  8.38E-19  4.52E-19  5.84E-20  2.02E-18
 -3.1246E-01  4.1632E-01  4.2826E-01  4.6163E-01  6.8575E-01  7.0578E-01
  7.1679E-01  9.8565E-01
 Non-SCF case, kpt   79 (  0.05000  0.05000  0.10000), residuals and eigenvalues=
  7.24E-19  1.88E-18  1.86E-18  1.10E-18  3.73E-19  9.07E-20  8.60E-20  8.15E-19
 -3.1634E-01  4.3272E-01  4.4138E-01  4.6408E-01  6.8174E-01  6.9589E-01
  7.0425E-01  9.8398E-01
 Non-SCF case, kpt   80 (  0.03750  0.03750  0.07500), residuals and eigenvalues=
  1.77E-19  2.07E-19  7.43E-20  3.56E-18  1.01E-19  1.67E-19  1.47E-19  5.21E-19
 -3.1936E-01  4.4698E-01  4.5248E-01  4.6595E-01  6.7869E-01  6.8732E-01
  6.9270E-01  9.8245E-01
 Non-SCF case, kpt   81 (  0.02500  0.02500  0.05000), residuals and eigenvalues=
  1.70E-19  7.58E-19  4.61E-19  2.24E-18  1.08E-19  7.47E-20  1.10E-19  2.60E-19
 -3.2152E-01  4.5832E-01  4.6102E-01  4.6727E-01  6.7649E-01  6.8061E-01
  6.8324E-01  9.8124E-01
 Non-SCF case, kpt   82 (  0.01250  0.01250  0.02500), residuals and eigenvalues=
  1.94E-19  1.50E-19  2.95E-19  1.44E-18  4.29E-20  4.88E-20  9.41E-20  1.07E-19
 -3.2282E-01  4.6573E-01  4.6645E-01  4.6805E-01  6.7518E-01  6.7621E-01
  6.7695E-01  9.8046E-01
 Non-SCF case, kpt   83 (  0.00000  0.00000  0.00000), residuals and eigenvalues=
  5.55E-20  1.14E-18  8.42E-19  2.86E-19  1.57E-19  1.40E-19  1.73E-19  2.02E-19
 -3.2325E-01  4.6831E-01  4.6831E-01  4.6831E-01  6.7474E-01  6.7474E-01
  6.7474E-01  9.8020E-01
 Non-SCF case, kpt   84 (  0.02083  0.02083  0.02083), residuals and eigenvalues=
  2.10E-19  1.12E-19  5.40E-19  1.79E-18  3.37E-20  1.55E-20  1.02E-19  1.43E-19
 -3.2280E-01  4.6506E-01  4.6749E-01  4.6749E-01  6.7582E-01  6.7582E-01
  6.7687E-01  9.8048E-01
 Non-SCF case, kpt   85 (  0.04167  0.04167  0.04167), residuals and eigenvalues=
  2.41E-19  6.41E-18  2.78E-18  3.44E-18  1.68E-19  3.04E-19  6.08E-19  1.45E-18
 -3.2144E-01  4.5575E-01  4.6507E-01  4.6507E-01  6.7899E-01  6.7899E-01
  6.8306E-01  9.8132E-01
 Non-SCF case, kpt   86 (  0.06250  0.06250  0.06250), residuals and eigenvalues=
  6.12E-19  6.38E-19  1.02E-18  6.09E-19  2.90E-20  7.21E-20  1.45E-19  3.12E-19
 -3.1919E-01  4.4146E-01  4.6125E-01  4.6125E-01  6.8408E-01  6.8408E-01
  6.9186E-01  9.8271E-01
 Non-SCF case, kpt   87 (  0.08333  0.08333  0.08333), residuals and eigenvalues=
  1.02E-18  3.36E-18  1.59E-18  1.03E-18  2.70E-19  5.64E-19  6.27E-19  1.25E-18
 -3.1605E-01  4.2337E-01  4.5627E-01  4.5627E-01  6.9062E-01  6.9062E-01
  7.0218E-01  9.8465E-01
 Non-SCF case, kpt   88 (  0.10417  0.10417  0.10417), residuals and eigenvalues=
  9.32E-19  7.87E-19  8.28E-20  3.23E-19  1.25E-19  1.97E-19  1.23E-19  6.90E-19
 -3.1202E-01  4.0234E-01  4.5041E-01  4.5041E-01  6.9831E-01  6.9831E-01
  7.1324E-01  9.8710E-01
 Non-SCF case, kpt   89 (  0.12500  0.12500  0.12500), residuals and eigenvalues=
  1.36E-18  9.39E-19  1.63E-19  5.28E-19  1.30E-19  1.11E-19  7.58E-20  6.76E-19
 -3.0709E-01  3.7955E-01  4.4389E-01  4.4389E-01  7.0692E-01  7.0692E-01
  7.2424E-01  9.9008E-01
 Non-SCF case, kpt   90 (  0.14583  0.14583  0.14583), residuals and eigenvalues=
  2.20E-18  1.72E-18  4.96E-19  1.61E-18  6.77E-20  4.57E-20  3.76E-20  1.71E-18
 -3.0128E-01  3.5539E-01  4.3706E-01  4.3706E-01  7.1585E-01  7.1585E-01
  7.3497E-01  9.9353E-01
 Non-SCF case, kpt   91 (  0.16667  0.16667  0.16667), residuals and eigenvalues=
  1.65E-18  8.61E-18  6.76E-19  2.88E-18  6.12E-20  4.48E-20  1.96E-19  8.08E-18
 -2.9460E-01  3.3025E-01  4.3007E-01  4.3007E-01  7.2487E-01  7.2487E-01
  7.4504E-01  9.9738E-01
 Non-SCF case, kpt   92 (  0.18750  0.18750  0.18750), residuals and eigenvalues=
  2.40E-18  1.04E-17  5.32E-19  2.86E-18  5.97E-20  9.62E-20  3.00E-19  1.48E-17
 -2.8703E-01  3.0454E-01  4.2306E-01  4.2306E-01  7.3370E-01  7.3370E-01
  7.5432E-01  1.0016E+00
 Non-SCF case, kpt   93 (  0.20833  0.20833  0.20833), residuals and eigenvalues=
  3.47E-18  9.50E-18  4.01E-19  2.41E-18  5.64E-20  1.67E-19  3.64E-19  2.17E-17
 -2.7860E-01  2.7845E-01  4.1618E-01  4.1618E-01  7.4207E-01  7.4207E-01
  7.6273E-01  1.0060E+00
 Non-SCF case, kpt   94 (  0.22917  0.22917  0.22917), residuals and eigenvalues=
  6.94E-18  3.60E-18  7.28E-19  1.72E-18  3.23E-19  7.52E-20  4.22E-19  2.74E-17
 -2.6932E-01  2.5219E-01  4.0943E-01  4.0943E-01  7.4975E-01  7.4975E-01
  7.7017E-01  1.0106E+00
 Non-SCF case, kpt   95 (  0.25000  0.25000  0.25000), residuals and eigenvalues=
  6.87E-18  5.78E-18  2.30E-19  1.58E-18  1.23E-19  4.89E-19  5.43E-19  3.80E-17
 -2.5918E-01  2.2594E-01  4.0310E-01  4.0310E-01  7.5663E-01  7.5663E-01
  7.7691E-01  1.0156E+00
 Non-SCF case, kpt   96 (  0.27083  0.27083  0.27083), residuals and eigenvalues=
  1.77E-17  6.20E-18  1.63E-18  3.73E-18  2.15E-19  7.18E-20  4.76E-19  6.07E-17
 -2.4821E-01  1.9980E-01  3.9711E-01  3.9711E-01  7.6255E-01  7.6255E-01
  7.8287E-01  1.0202E+00
 Non-SCF case, kpt   97 (  0.29167  0.29167  0.29167), residuals and eigenvalues=
  2.67E-17  7.88E-18  1.92E-18  3.13E-18  1.64E-19  1.32E-19  7.96E-19  9.59E-17
 -2.3642E-01  1.7390E-01  3.9153E-01  3.9153E-01  7.6749E-01  7.6749E-01
  7.8805E-01  1.0245E+00
 Non-SCF case, kpt   98 (  0.31250  0.31250  0.31250), residuals and eigenvalues=
  1.24E-18  2.02E-18  9.10E-19  7.07E-19  6.71E-20  2.21E-19  3.96E-19  3.56E-17
 -2.2383E-01  1.4837E-01  3.8641E-01  3.8641E-01  7.7153E-01  7.7153E-01
  7.9257E-01  1.0286E+00
 Non-SCF case, kpt   99 (  0.33333  0.33333  0.33333), residuals and eigenvalues=
  3.54E-19  2.50E-18  7.61E-19  6.58E-19  2.77E-19  6.15E-19  6.61E-19  5.92E-17
 -2.1049E-01  1.2327E-01  3.8177E-01  3.8177E-01  7.7461E-01  7.7461E-01
  7.9647E-01  1.0320E+00
 Non-SCF case, kpt  100 (  0.35417  0.35417  0.35417), residuals and eigenvalues=
  4.10E-19  4.28E-18  3.97E-18  5.33E-19  1.33E-18  1.77E-18  2.32E-18  8.57E-17
 -1.9644E-01  9.8728E-02  3.7763E-01  3.7763E-01  7.7691E-01  7.7691E-01
  7.9982E-01  1.0350E+00
 Non-SCF case, kpt  101 (  0.37500  0.37500  0.37500), residuals and eigenvalues=
  2.92E-18  1.11E-17  3.28E-18  6.18E-19  4.73E-18  3.51E-18  9.34E-18  6.55E-17
 -1.8173E-01  7.4853E-02  3.7402E-01  3.7402E-01  7.7854E-01  7.7854E-01
  8.0264E-01  1.0374E+00
 Non-SCF case, kpt  102 (  0.39583  0.39583  0.39583), residuals and eigenvalues=
  4.74E-17  2.09E-17  1.53E-18  1.00E-18  3.80E-17  3.35E-17  5.60E-16  1.32E-15
 -1.6648E-01  5.1798E-02  3.7101E-01  3.7101E-01  7.7966E-01  7.7966E-01
  8.0498E-01  1.0395E+00
  prteigrs : nnsclo,ikpt=   30  102 max resid (incl. the buffer)=  1.32383E-15
 Non-SCF case, kpt  103 (  0.41667  0.41667  0.41667), residuals and eigenvalues=
  8.32E-19  8.92E-18  3.17E-18  5.78E-19  2.61E-18  4.13E-18  4.39E-18  1.30E-16
 -1.5092E-01  2.9756E-02  3.6847E-01  3.6847E-01  7.8036E-01  7.8036E-01
  8.0683E-01  1.0407E+00
  prteigrs : nnsclo,ikpt=   30  103 max resid (incl. the buffer)=  1.30098E-16
 Non-SCF case, kpt  104 (  0.43750  0.43750  0.43750), residuals and eigenvalues=
  3.34E-19  4.95E-18  1.42E-18  5.42E-19  1.56E-17  1.31E-17  3.37E-17  2.94E-16
 -1.3542E-01  9.2136E-03  3.6649E-01  3.6649E-01  7.8078E-01  7.8078E-01
  8.0827E-01  1.0417E+00
  prteigrs : nnsclo,ikpt=   30  104 max resid (incl. the buffer)=  2.94291E-16
 Non-SCF case, kpt  105 (  0.45833  0.45833  0.45833), residuals and eigenvalues=
  1.69E-21  5.10E-21  3.64E-21  1.92E-21  2.66E-19  4.89E-20  9.09E-19  5.34E-18
 -1.2082E-01 -9.0109E-03  3.6504E-01  3.6504E-01  7.8078E-01  7.8078E-01
  8.0927E-01  1.0424E+00
 Non-SCF case, kpt  106 (  0.47917  0.47917  0.47917), residuals and eigenvalues=
  5.94E-22  8.46E-21  5.38E-21  2.77E-21  2.48E-19  2.25E-20  1.95E-18  1.17E-17
 -1.0913E-01 -2.2876E-02  3.6419E-01  3.6419E-01  7.8089E-01  7.8089E-01
  8.0987E-01  1.0427E+00
 Non-SCF case, kpt  107 (  0.50000  0.50000  0.50000), residuals and eigenvalues=
  1.11E-19  1.25E-18  8.39E-19  7.40E-19  3.02E-18  1.35E-18  5.42E-17  1.45E-15
 -1.0428E-01 -2.8458E-02  3.6391E-01  3.6391E-01  7.8090E-01  7.8090E-01
  8.1007E-01  1.0429E+00
  prteigrs : nnsclo,ikpt=   30  107 max resid (incl. the buffer)=  1.45498E-15
 Non-SCF case, kpt  108 (  0.50735  0.48529  0.50735), residuals and eigenvalues=
  2.92E-22  7.78E-21  4.70E-21  7.53E-22  1.02E-18  1.63E-20  7.58E-19  5.00E-18
 -1.0387E-01 -2.8029E-02  3.6195E-01  3.6317E-01  7.8056E-01  7.8262E-01
  8.1150E-01  1.0431E+00
 Non-SCF case, kpt  109 (  0.51471  0.47059  0.51471), residuals and eigenvalues=
  3.48E-22  1.01E-20  6.79E-21  3.75E-22  2.29E-19  2.45E-20  1.85E-19  3.25E-18
 -1.0269E-01 -2.6775E-02  3.5606E-01  3.6089E-01  7.7857E-01  7.8699E-01
  8.1598E-01  1.0435E+00
 Non-SCF case, kpt  110 (  0.52206  0.45588  0.52206), residuals and eigenvalues=
  4.02E-22  1.26E-20  8.90E-21  3.34E-22  3.37E-19  4.95E-20  1.12E-18  4.15E-18
 -1.0074E-01 -2.4691E-02  3.4660E-01  3.5723E-01  7.7479E-01  7.9413E-01
  8.2384E-01  1.0438E+00
 Non-SCF case, kpt  111 (  0.52941  0.44118  0.52941), residuals and eigenvalues=
  4.29E-22  1.54E-20  1.17E-20  4.51E-22  2.43E-19  8.16E-20  3.66E-19  2.17E-18
 -9.8010E-02 -2.1786E-02  3.3402E-01  3.5236E-01  7.6932E-01  8.0379E-01
  8.3490E-01  1.0436E+00
 Non-SCF case, kpt  112 (  0.53676  0.42647  0.53676), residuals and eigenvalues=
  5.64E-19  1.71E-17  6.62E-18  5.38E-19  2.73E-17  4.03E-17  1.25E-16  4.65E-15
 -9.4509E-02 -1.8079E-02  3.1880E-01  3.4651E-01  7.6252E-01  8.1572E-01
  8.4874E-01  1.0422E+00
  prteigrs : nnsclo,ikpt=   30  112 max resid (incl. the buffer)=  4.65323E-15
 Non-SCF case, kpt  113 (  0.54412  0.41176  0.54412), residuals and eigenvalues=
  1.90E-22  5.74E-21  2.61E-21  3.54E-21  1.69E-19  4.65E-19  1.49E-18  1.91E-16
 -9.0236E-02 -1.3582E-02  3.0150E-01  3.3992E-01  7.5485E-01  8.2955E-01
  8.6478E-01  1.0392E+00
  prteigrs : nnsclo,ikpt=   30  113 max resid (incl. the buffer)=  1.91128E-16
 Non-SCF case, kpt  114 (  0.55147  0.39706  0.55147), residuals and eigenvalues=
  6.67E-19  3.33E-17  1.15E-17  7.06E-19  1.47E-17  2.92E-17  1.70E-17  1.00E-13
 -8.5203E-02 -8.3331E-03  2.8256E-01  3.3276E-01  7.4663E-01  8.4496E-01
  8.8242E-01  1.0340E+00
  prteigrs : nnsclo,ikpt=   30  114 max resid (incl. the buffer)=  1.00311E-13
 Non-SCF case, kpt  115 (  0.55882  0.38235  0.55882), residuals and eigenvalues=
  4.93E-22  3.10E-20  3.56E-20  1.06E-21  6.75E-20  2.38E-19  9.15E-20  8.46E-16
 -7.9412E-02 -2.3632E-03  2.6244E-01  3.2532E-01  7.3823E-01  8.6158E-01
  9.0133E-01  1.0261E+00
  prteigrs : nnsclo,ikpt=   30  115 max resid (incl. the buffer)=  8.45804E-16
 Non-SCF case, kpt  116 (  0.56618  0.36765  0.56618), residuals and eigenvalues=
  2.42E-22  1.93E-20  1.74E-20  1.29E-20  7.48E-20  2.57E-18  8.72E-18  2.87E-15
 -7.2865E-02  4.2644E-03  2.4153E-01  3.1774E-01  7.2985E-01  8.7905E-01
  9.2114E-01  1.0153E+00
  prteigrs : nnsclo,ikpt=   30  116 max resid (incl. the buffer)=  2.86695E-15
 Non-SCF case, kpt  117 (  0.57353  0.35294  0.57353), residuals and eigenvalues=
  1.40E-22  2.51E-20  1.96E-20  2.00E-20  1.83E-19  5.79E-17  1.49E-16  1.53E-14
 -6.5596E-02  1.1457E-02  2.2018E-01  3.1022E-01  7.2168E-01  8.9700E-01
  9.4139E-01  1.0017E+00
  prteigrs : nnsclo,ikpt=   30  117 max resid (incl. the buffer)=  1.53098E-14
 Non-SCF case, kpt  118 (  0.58088  0.33824  0.58088), residuals and eigenvalues=
  4.11E-25  1.38E-22  6.93E-23  4.29E-23  2.86E-22  7.98E-19  8.34E-18  2.52E-16
 -5.7628E-02  1.9086E-02  1.9878E-01  3.0288E-01  7.1389E-01  9.1498E-01
  9.6130E-01  9.8617E-01
  prteigrs : nnsclo,ikpt=   30  118 max resid (incl. the buffer)=  2.52136E-16
 Non-SCF case, kpt  119 (  0.58824  0.32353  0.58824), residuals and eigenvalues=
  1.82E-20  9.64E-21  2.36E-20  1.27E-20  3.60E-21  6.05E-17  1.16E-16  1.73E-15
 -4.8993E-02  2.6893E-02  1.7767E-01  2.9584E-01  7.0654E-01  9.3261E-01
  9.6536E-01  9.8414E-01
  prteigrs : nnsclo,ikpt=   30  119 max resid (incl. the buffer)=  1.73181E-15
 Non-SCF case, kpt  120 (  0.59559  0.30882  0.59559), residuals and eigenvalues=
  3.04E-22  1.39E-20  1.36E-20  1.03E-20  4.20E-21  3.18E-17  2.11E-15  1.73E-13
 -3.9747E-02  3.4480E-02  1.5770E-01  2.8922E-01  6.9978E-01  9.4700E-01
  9.4947E-01  1.0026E+00
  prteigrs : nnsclo,ikpt=   30  120 max resid (incl. the buffer)=  1.72765E-13
 Non-SCF case, kpt  121 (  0.60294  0.29412  0.60294), residuals and eigenvalues=
  4.06E-22  1.10E-20  5.15E-21  9.70E-21  3.86E-21  1.78E-18  1.49E-17  5.09E-16
 -3.0012E-02  4.0983E-02  1.3978E-01  2.8308E-01  6.9362E-01  9.2706E-01
  9.6515E-01  1.0200E+00
  prteigrs : nnsclo,ikpt=   30  121 max resid (incl. the buffer)=  5.08847E-16
 Non-SCF case, kpt  122 (  0.61029  0.27941  0.61029), residuals and eigenvalues=
  1.33E-20  1.16E-20  5.65E-20  7.13E-20  4.35E-21  3.20E-19  3.91E-16  2.23E-13
 -2.0033E-02  4.4825E-02  1.2586E-01  2.7751E-01  6.8813E-01  9.0677E-01
  9.7933E-01  1.0347E+00
  prteigrs : nnsclo,ikpt=   30  122 max resid (incl. the buffer)=  2.23440E-13
 Non-SCF case, kpt  123 (  0.61765  0.26471  0.61765), residuals and eigenvalues=
  1.96E-18  1.41E-18  3.89E-18  3.89E-18  7.50E-19  6.02E-17  6.89E-14  8.83E-12
 -1.0459E-02  4.4045E-02  1.1857E-01  2.7255E-01  6.8329E-01  8.8659E-01
  9.9160E-01  1.0454E+00
  prteigrs : nnsclo,ikpt=   30  123 max resid (incl. the buffer)=  8.82701E-12
 Non-SCF case, kpt  124 (  0.62500  0.25000  0.62500), residuals and eigenvalues=
  1.43E-18  7.75E-18  6.26E-19  1.10E-17  1.36E-18  1.94E-17  4.29E-14  7.29E-10
 -3.3137E-03  3.9536E-02  1.1908E-01  2.6828E-01  6.7913E-01  8.6688E-01
  1.0018E+00  1.0516E+00
  prteigrs : nnsclo,ikpt=   30  124 max resid (incl. the buffer)=  7.28533E-10
 Non-SCF case, kpt  125 (  0.61250  0.25000  0.63750), residuals and eigenvalues=
  1.58E-17  6.72E-18  2.80E-17  2.69E-17  4.23E-18  2.02E-17  1.90E-15  7.02E-12
 -2.9519E-03  3.9685E-02  1.1946E-01  2.6601E-01  6.8209E-01  8.6698E-01
  1.0001E+00  1.0494E+00
  prteigrs : nnsclo,ikpt=   30  125 max resid (incl. the buffer)=  7.02495E-12
 Non-SCF case, kpt  126 (  0.60000  0.25000  0.65000), residuals and eigenvalues=
  1.14E-21  1.81E-20  2.58E-20  6.01E-20  2.02E-20  3.90E-19  5.07E-15  1.38E-14
 -1.8503E-03  4.0180E-02  1.2062E-01  2.5962E-01  6.9084E-01  8.6728E-01
  9.9525E-01  1.0429E+00
  prteigrs : nnsclo,ikpt=   30  126 max resid (incl. the buffer)=  1.37934E-14
 Non-SCF case, kpt  127 (  0.58750  0.25000  0.66250), residuals and eigenvalues=
  1.11E-21  2.00E-20  5.19E-21  3.47E-20  2.19E-20  4.41E-19  3.93E-15  5.22E-14
 -1.4284E-05  4.0945E-02  1.2255E-01  2.4963E-01  7.0472E-01  8.6773E-01
  9.8796E-01  1.0329E+00
  prteigrs : nnsclo,ikpt=   30  127 max resid (incl. the buffer)=  5.22437E-14
 Non-SCF case, kpt  128 (  0.57500  0.25000  0.67500), residuals and eigenvalues=
  1.61E-21  2.23E-20  1.31E-21  3.94E-20  4.44E-20  3.71E-19  1.14E-16  1.60E-14
  2.5551E-03  4.1878E-02  1.2523E-01  2.3690E-01  7.2292E-01  8.6824E-01
  9.7901E-01  1.0197E+00
  prteigrs : nnsclo,ikpt=   30  128 max resid (incl. the buffer)=  1.59790E-14
 Non-SCF case, kpt  129 (  0.56250  0.25000  0.68750), residuals and eigenvalues=
  1.95E-18  1.01E-17  1.06E-19  1.34E-17  2.68E-17  2.44E-17  7.55E-16  4.97E-14
  5.8561E-03  4.2809E-02  1.2864E-01  2.2235E-01  7.4454E-01  8.6859E-01
  9.6904E-01  1.0040E+00
  prteigrs : nnsclo,ikpt=   30  129 max resid (incl. the buffer)=  4.97238E-14
 Non-SCF case, kpt  130 (  0.55000  0.25000  0.70000), residuals and eigenvalues=
  2.13E-18  1.77E-17  9.32E-19  2.20E-17  5.73E-17  8.83E-17  1.94E-15  6.69E-15
  9.8955E-03  4.3483E-02  1.3281E-01  2.0695E-01  7.6874E-01  8.6868E-01
  9.5911E-01  9.8678E-01
  prteigrs : nnsclo,ikpt=   30  130 max resid (incl. the buffer)=  6.68860E-15
 Non-SCF case, kpt  131 (  0.53750  0.25000  0.71250), residuals and eigenvalues=
  6.27E-18  1.09E-17  5.39E-18  1.86E-17  5.05E-17  6.27E-17  1.31E-16  6.55E-16
  1.4658E-02  4.3482E-02  1.3769E-01  1.9158E-01  7.9438E-01  8.6800E-01
  9.4957E-01  9.6878E-01
  prteigrs : nnsclo,ikpt=   30  131 max resid (incl. the buffer)=  6.54872E-16
 Non-SCF case, kpt  132 (  0.52500  0.25000  0.72500), residuals and eigenvalues=
  6.32E-18  1.22E-18  4.84E-18  5.45E-18  1.34E-18  2.59E-18  2.82E-17  1.91E-17
  2.0166E-02  4.2275E-02  1.4326E-01  1.7735E-01  8.2017E-01  8.6620E-01
  9.4148E-01  9.5127E-01
 Non-SCF case, kpt  133 (  0.51250  0.25000  0.73750), residuals and eigenvalues=
  3.56E-18  3.60E-18  1.75E-18  7.53E-18  1.19E-17  2.68E-18  1.04E-17  4.12E-17
  2.6392E-02  3.9140E-02  1.4948E-01  1.6528E-01  8.4345E-01  8.6279E-01
  9.3533E-01  9.3671E-01
 Non-SCF case, kpt  134 (  0.50000  0.25000  0.75000), residuals and eigenvalues=
  2.51E-17  4.18E-18  1.53E-17  2.08E-17  8.51E-19  1.40E-18  2.46E-17  4.38E-18
  3.3339E-02  3.3339E-02  1.5634E-01  1.5634E-01  8.5756E-01  8.5756E-01
  9.3153E-01  9.3153E-01
 Non-SCF case, kpt  135 (  0.50000  0.26250  0.73750), residuals and eigenvalues=
  4.92E-18  2.27E-18  2.16E-18  5.62E-18  1.17E-18  9.14E-19  8.89E-18  1.01E-17
  2.2522E-02  4.2859E-02  1.4756E-01  1.6742E-01  8.4765E-01  8.6455E-01
  9.3000E-01  9.3684E-01
 Non-SCF case, kpt  136 (  0.50000  0.27500  0.72500), residuals and eigenvalues=
  9.23E-18  2.51E-19  2.53E-18  5.67E-18  1.41E-18  3.13E-18  4.15E-17  1.87E-16
  1.1221E-02  4.9910E-02  1.4234E-01  1.8000E-01  8.3662E-01  8.6700E-01
  9.3381E-01  9.4444E-01
  prteigrs : nnsclo,ikpt=   30  136 max resid (incl. the buffer)=  1.86822E-16
 Non-SCF case, kpt  137 (  0.50000  0.28750  0.71250), residuals and eigenvalues=
  6.86E-18  6.29E-18  6.74E-18  7.81E-18  1.51E-18  6.04E-18  1.34E-16  2.40E-16
 -1.3138E-04  5.3149E-02  1.4203E-01  1.9354E-01  8.2547E-01  8.6515E-01
  9.4257E-01  9.5326E-01
  prteigrs : nnsclo,ikpt=   30  137 max resid (incl. the buffer)=  2.39549E-16
 Non-SCF case, kpt  138 (  0.50000  0.30000  0.70000), residuals and eigenvalues=
  4.35E-18  4.40E-18  1.74E-18  6.93E-18  9.63E-18  3.29E-17  5.54E-16  2.43E-15
 -1.1242E-02  5.2081E-02  1.4718E-01  2.0771E-01  8.1480E-01  8.6054E-01
  9.5423E-01  9.6289E-01
  prteigrs : nnsclo,ikpt=   30  138 max resid (incl. the buffer)=  2.43351E-15
 Non-SCF case, kpt  139 (  0.50000  0.31250  0.68750), residuals and eigenvalues=
  5.16E-18  3.52E-18  5.44E-18  4.83E-18  4.64E-17  1.56E-17  6.01E-16  2.87E-15
 -2.1959E-02  4.7569E-02  1.5695E-01  2.2227E-01  8.0493E-01  8.5461E-01
  9.6654E-01  9.7279E-01
  prteigrs : nnsclo,ikpt=   30  139 max resid (incl. the buffer)=  2.87166E-15
 Non-SCF case, kpt  140 (  0.50000  0.32500  0.67500), residuals and eigenvalues=
  5.60E-21  2.01E-20  1.24E-20  1.26E-20  1.00E-19  1.24E-19  2.15E-16  6.59E-17
 -3.2181E-02  4.0957E-02  1.6987E-01  2.3693E-01  7.9606E-01  8.4813E-01
  9.7722E-01  9.8277E-01
  prteigrs : nnsclo,ikpt=   30  140 max resid (incl. the buffer)=  2.15121E-16
 Non-SCF case, kpt  141 (  0.50000  0.33750  0.66250), residuals and eigenvalues=
  8.70E-18  2.41E-17  1.08E-17  1.64E-17  3.78E-18  1.42E-17  1.37E-14  4.31E-14
 -4.1840E-02  3.3374E-02  1.8488E-01  2.5154E-01  7.8835E-01  8.4159E-01
  9.8376E-01  9.9280E-01
  prteigrs : nnsclo,ikpt=   30  141 max resid (incl. the buffer)=  4.30761E-14
 Non-SCF case, kpt  142 (  0.50000  0.35000  0.65000), residuals and eigenvalues=
  1.92E-18  3.26E-17  2.43E-17  4.13E-18  7.05E-17  5.18E-17  3.15E-13  5.39E-13
 -5.0876E-02  2.5469E-02  2.0128E-01  2.6593E-01  7.8191E-01  8.3515E-01
  9.8305E-01  1.0023E+00
  prteigrs : nnsclo,ikpt=   30  142 max resid (incl. the buffer)=  5.38791E-13
 Non-SCF case, kpt  143 (  0.50000  0.36250  0.63750), residuals and eigenvalues=
  9.67E-18  4.38E-17  2.42E-17  1.08E-17  7.50E-18  5.34E-18  1.33E-14  1.31E-13
 -5.9267E-02  1.7641E-02  2.1845E-01  2.7987E-01  7.7677E-01  8.2897E-01
  9.7371E-01  1.0112E+00
  prteigrs : nnsclo,ikpt=   30  143 max resid (incl. the buffer)=  1.31490E-13
 Non-SCF case, kpt  144 (  0.50000  0.37500  0.62500), residuals and eigenvalues=
  2.64E-21  1.58E-20  1.00E-20  5.82E-21  1.71E-20  8.88E-20  1.74E-16  5.07E-15
 -6.6989E-02  1.0142E-02  2.3614E-01  2.9318E-01  7.7295E-01  8.2311E-01
  9.5773E-01  1.0194E+00
  prteigrs : nnsclo,ikpt=   30  144 max resid (incl. the buffer)=  5.07298E-15
 Non-SCF case, kpt  145 (  0.50000  0.38750  0.61250), residuals and eigenvalues=
  4.31E-21  1.14E-20  6.03E-21  2.56E-21  2.21E-20  8.65E-20  1.07E-18  2.92E-15
 -7.4004E-02  3.1357E-03  2.5406E-01  3.0576E-01  7.7055E-01  8.1767E-01
  9.3780E-01  1.0266E+00
  prteigrs : nnsclo,ikpt=   30  145 max resid (incl. the buffer)=  2.91981E-15
 Non-SCF case, kpt  146 (  0.50000  0.40000  0.60000), residuals and eigenvalues=
  1.15E-18  2.10E-17  8.91E-18  1.28E-18  2.28E-17  2.86E-17  1.33E-16  5.61E-13
 -8.0316E-02 -3.2866E-03  2.7191E-01  3.1741E-01  7.6940E-01  8.1262E-01
  9.1601E-01  1.0326E+00
  prteigrs : nnsclo,ikpt=   30  146 max resid (incl. the buffer)=  5.60504E-13
 Non-SCF case, kpt  147 (  0.50000  0.41250  0.58750), residuals and eigenvalues=
  1.19E-18  2.20E-17  9.27E-18  1.16E-18  1.44E-17  1.85E-17  2.24E-17  1.90E-13
 -8.5899E-02 -9.0533E-03  2.8938E-01  3.2795E-01  7.6952E-01  8.0791E-01
  8.9395E-01  1.0374E+00
  prteigrs : nnsclo,ikpt=   30  147 max resid (incl. the buffer)=  1.90434E-13
 Non-SCF case, kpt  148 (  0.50000  0.42500  0.57500), residuals and eigenvalues=
  2.88E-18  5.66E-18  2.70E-18  1.41E-18  7.05E-18  1.11E-17  2.06E-17  6.02E-15
 -9.0750E-02 -1.4120E-02  3.0616E-01  3.3732E-01  7.7062E-01  8.0355E-01
  8.7277E-01  1.0408E+00
  prteigrs : nnsclo,ikpt=   30  148 max resid (incl. the buffer)=  6.02422E-15
 Non-SCF case, kpt  149 (  0.50000  0.43750  0.56250), residuals and eigenvalues=
  2.19E-18  4.73E-18  2.18E-18  8.77E-19  1.67E-17  7.01E-18  8.34E-17  5.47E-15
 -9.4867E-02 -1.8457E-02  3.2175E-01  3.4536E-01  7.7248E-01  7.9937E-01
  8.5343E-01  1.0428E+00
  prteigrs : nnsclo,ikpt=   30  149 max resid (incl. the buffer)=  5.46943E-15
 Non-SCF case, kpt  150 (  0.50000  0.45000  0.55000), residuals and eigenvalues=
  1.18E-18  4.27E-18  1.98E-18  5.23E-19  5.99E-19  3.82E-17  1.46E-16  3.91E-15
 -9.8240E-02 -2.2030E-02  3.3570E-01  3.5201E-01  7.7479E-01  7.9516E-01
  8.3686E-01  1.0438E+00
  prteigrs : nnsclo,ikpt=   30  150 max resid (incl. the buffer)=  3.91386E-15
 Non-SCF case, kpt  151 (  0.50000  0.46250  0.53750), residuals and eigenvalues=
  6.16E-22  6.72E-21  2.96E-21  8.68E-22  2.81E-21  6.25E-19  3.01E-19  1.08E-17
 -1.0087E-01 -2.4830E-02  3.4744E-01  3.5722E-01  7.7716E-01  7.9067E-01
  8.2419E-01  1.0438E+00
 Non-SCF case, kpt  152 (  0.50000  0.47500  0.52500), residuals and eigenvalues=
  4.14E-22  7.25E-21  2.44E-21  1.81E-21  5.58E-21  1.99E-18  6.41E-19  6.23E-18
 -1.0275E-01 -2.6838E-02  3.5639E-01  3.6095E-01  7.7922E-01  7.8611E-01
  8.1587E-01  1.0435E+00
 Non-SCF case, kpt  153 (  0.50000  0.48750  0.51250), residuals and eigenvalues=
  8.95E-23  3.28E-21  1.33E-21  2.90E-22  3.31E-19  7.53E-20  6.10E-20  6.11E-18
 -1.0389E-01 -2.8048E-02  3.6202E-01  3.6317E-01  7.8062E-01  7.8236E-01
  8.1144E-01  1.0430E+00
 Non-SCF case, kpt  154 (  0.50000  0.50000  0.50000), residuals and eigenvalues=
  1.11E-19  1.25E-18  8.39E-19  7.40E-19  3.02E-18  1.35E-18  5.42E-17  1.45E-15
 -1.0428E-01 -2.8458E-02  3.6391E-01  3.6391E-01  7.8090E-01  7.8090E-01
  8.1007E-01  1.0429E+00
  prteigrs : nnsclo,ikpt=   30  154 max resid (incl. the buffer)=  1.45498E-15
 Non-SCF case, kpt  155 (  0.49265  0.49265  0.51471), residuals and eigenvalues=
  2.41E-22  6.85E-21  1.00E-21  3.70E-21  1.07E-19  5.19E-19  2.02E-17  1.95E-17
 -1.0387E-01 -2.8029E-02  3.6195E-01  3.6317E-01  7.8056E-01  7.8262E-01
  8.1150E-01  1.0431E+00
 Non-SCF case, kpt  156 (  0.48529  0.48529  0.52941), residuals and eigenvalues=
  1.53E-22  9.06E-21  1.67E-21  3.71E-21  8.67E-20  2.82E-17  6.53E-18  2.55E-17
 -1.0269E-01 -2.6775E-02  3.5606E-01  3.6089E-01  7.7857E-01  7.8699E-01
  8.1598E-01  1.0435E+00
 Non-SCF case, kpt  157 (  0.47794  0.47794  0.54412), residuals and eigenvalues=
  3.05E-22  8.21E-21  2.88E-21  3.58E-21  1.01E-18  6.79E-18  2.08E-19  3.13E-17
 -1.0074E-01 -2.4691E-02  3.4660E-01  3.5723E-01  7.7479E-01  7.9413E-01
  8.2384E-01  1.0438E+00
 Non-SCF case, kpt  158 (  0.47059  0.47059  0.55882), residuals and eigenvalues=
  4.47E-22  6.71E-21  3.82E-21  2.67E-21  1.97E-18  7.04E-18  3.59E-17  1.57E-16
 -9.8010E-02 -2.1786E-02  3.3402E-01  3.5236E-01  7.6932E-01  8.0379E-01
  8.3490E-01  1.0436E+00
  prteigrs : nnsclo,ikpt=   30  158 max resid (incl. the buffer)=  1.56897E-16
 Non-SCF case, kpt  159 (  0.46324  0.46324  0.57353), residuals and eigenvalues=
  5.41E-22  7.47E-21  4.95E-21  2.52E-21  5.53E-19  8.08E-18  6.24E-18  4.76E-16
 -9.4509E-02 -1.8079E-02  3.1880E-01  3.4651E-01  7.6252E-01  8.1572E-01
  8.4874E-01  1.0422E+00
  prteigrs : nnsclo,ikpt=   30  159 max resid (incl. the buffer)=  4.76000E-16
 Non-SCF case, kpt  160 (  0.45588  0.45588  0.58824), residuals and eigenvalues=
  1.49E-22  1.15E-20  1.20E-20  2.70E-22  4.06E-20  1.73E-19  9.46E-19  1.57E-16
 -9.0236E-02 -1.3582E-02  3.0150E-01  3.3992E-01  7.5485E-01  8.2955E-01
  8.6478E-01  1.0392E+00
  prteigrs : nnsclo,ikpt=   30  160 max resid (incl. the buffer)=  1.57093E-16
 Non-SCF case, kpt  161 (  0.44853  0.44853  0.60294), residuals and eigenvalues=
  5.16E-22  9.78E-21  7.55E-21  2.93E-21  5.99E-20  2.15E-18  4.70E-18  3.68E-15
 -8.5203E-02 -8.3331E-03  2.8256E-01  3.3276E-01  7.4663E-01  8.4496E-01
  8.8242E-01  1.0340E+00
  prteigrs : nnsclo,ikpt=   30  161 max resid (incl. the buffer)=  3.67649E-15
 Non-SCF case, kpt  162 (  0.44118  0.44118  0.61765), residuals and eigenvalues=
  6.16E-22  7.42E-21  7.39E-21  2.24E-21  5.20E-20  9.64E-18  7.82E-18  5.03E-15
 -7.9412E-02 -2.3632E-03  2.6244E-01  3.2532E-01  7.3823E-01  8.6158E-01
  9.0133E-01  1.0261E+00
  prteigrs : nnsclo,ikpt=   30  162 max resid (incl. the buffer)=  5.02624E-15
 Non-SCF case, kpt  163 (  0.43382  0.43382  0.63235), residuals and eigenvalues=
  6.47E-22  2.79E-20  3.61E-20  8.14E-21  9.50E-20  1.00E-17  6.81E-18  1.49E-15
 -7.2865E-02  4.2644E-03  2.4153E-01  3.1774E-01  7.2985E-01  8.7905E-01
  9.2114E-01  1.0153E+00
  prteigrs : nnsclo,ikpt=   30  163 max resid (incl. the buffer)=  1.48540E-15
 Non-SCF case, kpt  164 (  0.42647  0.42647  0.64706), residuals and eigenvalues=
  8.02E-22  4.05E-20  5.15E-20  1.30E-20  7.39E-20  3.53E-17  2.77E-17  1.06E-15
 -6.5596E-02  1.1457E-02  2.2018E-01  3.1022E-01  7.2168E-01  8.9700E-01
  9.4139E-01  1.0017E+00
  prteigrs : nnsclo,ikpt=   30  164 max resid (incl. the buffer)=  1.06339E-15
 Non-SCF case, kpt  165 (  0.41912  0.41912  0.66176), residuals and eigenvalues=
  7.37E-22  4.75E-20  5.88E-20  1.63E-20  3.26E-20  4.70E-17  3.18E-16  9.97E-16
 -5.7628E-02  1.9086E-02  1.9878E-01  3.0288E-01  7.1389E-01  9.1498E-01
  9.6130E-01  9.8617E-01
  prteigrs : nnsclo,ikpt=   30  165 max resid (incl. the buffer)=  9.97257E-16
 Non-SCF case, kpt  166 (  0.41176  0.41176  0.67647), residuals and eigenvalues=
  4.56E-24  9.44E-23  4.20E-22  4.51E-22  3.15E-23  1.05E-18  1.10E-17  4.44E-18
 -4.8993E-02  2.6893E-02  1.7767E-01  2.9584E-01  7.0654E-01  9.3261E-01
  9.6536E-01  9.8414E-01
 Non-SCF case, kpt  167 (  0.40441  0.40441  0.69118), residuals and eigenvalues=
  1.51E-22  1.43E-20  2.19E-20  2.01E-20  1.11E-20  2.34E-17  1.73E-15  1.14E-14
 -3.9747E-02  3.4480E-02  1.5770E-01  2.8922E-01  6.9978E-01  9.4700E-01
  9.4947E-01  1.0026E+00
  prteigrs : nnsclo,ikpt=   30  167 max resid (incl. the buffer)=  1.13754E-14
 Non-SCF case, kpt  168 (  0.39706  0.39706  0.70588), residuals and eigenvalues=
  1.53E-22  9.35E-21  1.28E-20  1.45E-20  7.73E-21  3.46E-19  2.97E-15  2.23E-13
 -3.0012E-02  4.0983E-02  1.3978E-01  2.8308E-01  6.9362E-01  9.2706E-01
  9.6515E-01  1.0200E+00
  prteigrs : nnsclo,ikpt=   30  168 max resid (incl. the buffer)=  2.22609E-13
 Non-SCF case, kpt  169 (  0.38971  0.38971  0.72059), residuals and eigenvalues=
  2.54E-20  3.65E-20  7.54E-20  5.98E-20  4.66E-21  1.78E-18  1.78E-16  5.30E-15
 -2.0033E-02  4.4825E-02  1.2586E-01  2.7751E-01  6.8813E-01  9.0677E-01
  9.7933E-01  1.0347E+00
  prteigrs : nnsclo,ikpt=   30  169 max resid (incl. the buffer)=  5.30396E-15
 Non-SCF case, kpt  170 (  0.38235  0.38235  0.73529), residuals and eigenvalues=
  2.56E-20  5.51E-21  6.55E-20  1.28E-19  1.55E-21  2.22E-19  2.22E-14  1.16E-12
 -1.0459E-02  4.4045E-02  1.1857E-01  2.7255E-01  6.8329E-01  8.8659E-01
  9.9160E-01  1.0454E+00
  prteigrs : nnsclo,ikpt=   30  170 max resid (incl. the buffer)=  1.16377E-12
 Non-SCF case, kpt  171 (  0.37500  0.37500  0.75000), residuals and eigenvalues=
  1.06E-17  8.55E-18  1.66E-17  2.07E-17  4.88E-18  1.60E-17  2.37E-13  2.54E-11
 -3.3137E-03  3.9536E-02  1.1908E-01  2.6828E-01  6.7913E-01  8.6688E-01
  1.0018E+00  1.0516E+00
  prteigrs : nnsclo,ikpt=   30  171 max resid (incl. the buffer)=  2.53883E-11
 Non-SCF case, kpt  172 (  0.38971  0.36765  0.74265), residuals and eigenvalues=
  1.47E-17  4.59E-18  3.14E-17  3.21E-17  2.36E-18  9.80E-18  2.43E-14  7.27E-12
 -6.0584E-03  4.2082E-02  1.1821E-01  2.6858E-01  6.8344E-01  8.7672E-01
  9.9559E-01  1.0473E+00
  prteigrs : nnsclo,ikpt=   30  172 max resid (incl. the buffer)=  7.27163E-12
 Non-SCF case, kpt  173 (  0.40441  0.36029  0.73529), residuals and eigenvalues=
  8.16E-18  1.68E-17  7.41E-17  9.30E-17  5.61E-18  2.29E-17  2.24E-14  2.58E-12
 -9.3209E-03  4.4605E-02  1.1970E-01  2.6580E-01  6.9236E-01  8.8672E-01
  9.8584E-01  1.0395E+00
  prteigrs : nnsclo,ikpt=   30  173 max resid (incl. the buffer)=  2.57827E-12
 Non-SCF case, kpt  174 (  0.41912  0.35294  0.72794), residuals and eigenvalues=
  9.76E-18  8.17E-19  1.99E-17  1.31E-17  2.71E-18  8.24E-17  1.39E-13  4.96E-11
 -1.2579E-02  4.6457E-02  1.2358E-01  2.6041E-01  7.0548E-01  8.9644E-01
  9.7253E-01  1.0296E+00
  prteigrs : nnsclo,ikpt=   30  174 max resid (incl. the buffer)=  4.96174E-11
 Non-SCF case, kpt  175 (  0.43382  0.34559  0.72059), residuals and eigenvalues=
  1.34E-20  5.21E-21  2.60E-20  1.95E-20  5.21E-21  7.61E-19  1.15E-16  4.41E-14
 -1.5526E-02  4.7483E-02  1.2953E-01  2.5299E-01  7.2210E-01  9.0458E-01
  9.5720E-01  1.0190E+00
  prteigrs : nnsclo,ikpt=   30  175 max resid (incl. the buffer)=  4.40788E-14
 Non-SCF case, kpt  176 (  0.44853  0.33824  0.71324), residuals and eigenvalues=
  1.05E-20  7.41E-21  1.61E-20  1.14E-20  7.57E-21  4.36E-19  6.58E-18  3.95E-15
 -1.8004E-02  4.7850E-02  1.3692E-01  2.4435E-01  7.4148E-01  9.0636E-01
  9.4542E-01  1.0083E+00
  prteigrs : nnsclo,ikpt=   30  176 max resid (incl. the buffer)=  3.94617E-15
 Non-SCF case, kpt  177 (  0.46324  0.33088  0.70588), residuals and eigenvalues=
  1.51E-21  2.96E-21  3.27E-21  5.27E-21  1.09E-20  4.01E-19  2.95E-18  1.63E-15
 -1.9922E-02  4.7837E-02  1.4480E-01  2.3547E-01  7.6272E-01  8.9443E-01
  9.4567E-01  9.9750E-01
  prteigrs : nnsclo,ikpt=   30  177 max resid (incl. the buffer)=  1.62700E-15
 Non-SCF case, kpt  178 (  0.47794  0.32353  0.69853), residuals and eigenvalues=
  7.73E-21  1.56E-20  1.08E-20  1.49E-20  1.65E-20  2.43E-19  1.65E-18  7.02E-17
 -2.1222E-02  4.7692E-02  1.5187E-01  2.2771E-01  7.8433E-01  8.7491E-01
  9.5358E-01  9.8657E-01
 Non-SCF case, kpt  179 (  0.49265  0.31618  0.69118), residuals and eigenvalues=
  1.61E-21  1.47E-21  1.85E-21  2.59E-21  2.03E-20  2.23E-19  1.13E-17  5.17E-17
 -2.1879E-02  4.7576E-02  1.5631E-01  2.2291E-01  8.0182E-01  8.5769E-01
  9.6335E-01  9.7600E-01
 Non-SCF case, kpt  180 (  0.50735  0.30882  0.68382), residuals and eigenvalues=
  2.58E-21  1.74E-21  2.45E-21  3.96E-21  6.00E-21  1.73E-19  1.15E-17  2.14E-17
 -2.1879E-02  4.7576E-02  1.5631E-01  2.2291E-01  8.0182E-01  8.5769E-01
  9.6335E-01  9.7600E-01
 Non-SCF case, kpt  181 (  0.52206  0.30147  0.67647), residuals and eigenvalues=
  8.33E-21  5.93E-21  1.17E-20  6.49E-21  1.50E-19  1.37E-19  1.17E-18  5.24E-17
 -2.1222E-02  4.7692E-02  1.5187E-01  2.2771E-01  7.8433E-01  8.7491E-01
  9.5358E-01  9.8657E-01
 Non-SCF case, kpt  182 (  0.53676  0.29412  0.66912), residuals and eigenvalues=
  8.64E-21  4.16E-21  7.68E-21  1.06E-20  7.00E-21  2.02E-19  1.03E-18  6.62E-16
 -1.9922E-02  4.7837E-02  1.4480E-01  2.3547E-01  7.6272E-01  8.9443E-01
  9.4567E-01  9.9750E-01
  prteigrs : nnsclo,ikpt=   30  182 max resid (incl. the buffer)=  6.62438E-16
 Non-SCF case, kpt  183 (  0.55147  0.28676  0.66176), residuals and eigenvalues=
  1.32E-20  3.09E-21  3.16E-20  2.50E-20  2.68E-19  3.36E-19  1.16E-19  1.07E-15
 -1.8004E-02  4.7850E-02  1.3692E-01  2.4435E-01  7.4148E-01  9.0636E-01
  9.4542E-01  1.0083E+00
  prteigrs : nnsclo,ikpt=   30  183 max resid (incl. the buffer)=  1.07245E-15
 Non-SCF case, kpt  184 (  0.56618  0.27941  0.65441), residuals and eigenvalues=
  1.08E-17  3.49E-18  4.17E-17  3.23E-17  4.06E-17  6.73E-17  3.36E-17  2.95E-13
 -1.5526E-02  4.7483E-02  1.2953E-01  2.5299E-01  7.2210E-01  9.0458E-01
  9.5720E-01  1.0190E+00
  prteigrs : nnsclo,ikpt=   30  184 max resid (incl. the buffer)=  2.94818E-13
 Non-SCF case, kpt  185 (  0.58088  0.27206  0.64706), residuals and eigenvalues=
  1.43E-17  3.88E-18  5.78E-17  4.49E-17  1.53E-17  4.28E-17  5.28E-16  5.67E-13
 -1.2579E-02  4.6457E-02  1.2358E-01  2.6041E-01  7.0548E-01  8.9644E-01
  9.7253E-01  1.0296E+00
  prteigrs : nnsclo,ikpt=   30  185 max resid (incl. the buffer)=  5.67317E-13
 Non-SCF case, kpt  186 (  0.59559  0.26471  0.63971), residuals and eigenvalues=
  5.58E-22  2.34E-20  2.10E-20  6.29E-20  1.84E-20  2.79E-18  8.04E-15  6.41E-12
 -9.3209E-03  4.4605E-02  1.1970E-01  2.6580E-01  6.9236E-01  8.8672E-01
  9.8584E-01  1.0395E+00
  prteigrs : nnsclo,ikpt=   30  186 max resid (incl. the buffer)=  6.40996E-12
 Non-SCF case, kpt  187 (  0.61029  0.25735  0.63235), residuals and eigenvalues=
  3.53E-18  2.73E-17  2.24E-17  4.29E-17  6.18E-18  1.40E-17  1.23E-13  1.69E-11
 -6.0584E-03  4.2082E-02  1.1821E-01  2.6858E-01  6.8344E-01  8.7672E-01
  9.9559E-01  1.0473E+00
  prteigrs : nnsclo,ikpt=   30  187 max resid (incl. the buffer)=  1.68684E-11
 Non-SCF case, kpt  188 (  0.62500  0.25000  0.62500), residuals and eigenvalues=
  1.43E-18  7.75E-18  6.26E-19  1.10E-17  1.36E-18  1.94E-17  4.29E-14  7.29E-10
 -3.3137E-03  3.9536E-02  1.1908E-01  2.6828E-01  6.7913E-01  8.6688E-01
  1.0018E+00  1.0516E+00
  prteigrs : nnsclo,ikpt=   30  188 max resid (incl. the buffer)=  7.28533E-10
 Non-SCF case, kpt  189 (  0.61250  0.22500  0.61250), residuals and eigenvalues=
  3.26E-18  1.65E-18  6.76E-18  8.77E-18  5.37E-19  1.02E-17  3.27E-12  1.12E-12
  2.6312E-03  3.2347E-02  1.2770E-01  2.6177E-01  6.7283E-01  8.3410E-01
  1.0169E+00  1.0581E+00
  prteigrs : nnsclo,ikpt=   30  189 max resid (incl. the buffer)=  3.26695E-12
 Non-SCF case, kpt  190 (  0.60000  0.20000  0.60000), residuals and eigenvalues=
  2.00E-19  2.32E-20  3.54E-19  1.18E-19  1.89E-20  4.07E-20  1.32E-16  1.02E-15
  5.7490E-03  2.5930E-02  1.3980E-01  2.5594E-01  6.6720E-01  8.0213E-01
  1.0312E+00  1.0644E+00
  prteigrs : nnsclo,ikpt=   30  190 max resid (incl. the buffer)=  1.02289E-15
 Non-SCF case, kpt  191 (  0.58750  0.17500  0.58750), residuals and eigenvalues=
  2.37E-17  3.37E-17  5.07E-17  4.52E-17  9.62E-18  2.08E-17  1.04E-13  3.56E-13
  6.7618E-03  2.0252E-02  1.5421E-01  2.5073E-01  6.6217E-01  7.7118E-01
  1.0444E+00  1.0703E+00
  prteigrs : nnsclo,ikpt=   30  191 max resid (incl. the buffer)=  3.55790E-13
 Non-SCF case, kpt  192 (  0.57500  0.15000  0.57500), residuals and eigenvalues=
  3.67E-17  4.14E-17  4.44E-17  2.70E-17  7.30E-18  1.41E-17  1.73E-14  4.50E-14
  6.5027E-03  1.5329E-02  1.6991E-01  2.4617E-01  6.5780E-01  7.4232E-01
  1.0565E+00  1.0758E+00
  prteigrs : nnsclo,ikpt=   30  192 max resid (incl. the buffer)=  4.50186E-14
 Non-SCF case, kpt  193 (  0.56250  0.12500  0.56250), residuals and eigenvalues=
  5.70E-17  5.82E-17  5.69E-17  2.00E-17  1.08E-17  1.29E-17  6.02E-15  7.41E-15
  5.5840E-03  1.1158E-02  1.8578E-01  2.4233E-01  6.5411E-01  7.1587E-01
  1.0671E+00  1.0806E+00
  prteigrs : nnsclo,ikpt=   30  193 max resid (incl. the buffer)=  7.41433E-15
 Non-SCF case, kpt  194 (  0.55000  0.10000  0.55000), residuals and eigenvalues=
  6.35E-17  6.41E-17  7.48E-17  2.09E-17  1.13E-17  1.82E-17  3.54E-15  1.81E-15
  4.4322E-03  7.7435E-03  2.0079E-01  2.3913E-01  6.5106E-01  6.9248E-01
  1.0761E+00  1.0848E+00
  prteigrs : nnsclo,ikpt=   30  194 max resid (incl. the buffer)=  3.53533E-15
 Non-SCF case, kpt  195 (  0.53750  0.07500  0.53750), residuals and eigenvalues=
  5.78E-17  7.05E-17  7.31E-17  2.53E-17  1.31E-17  1.71E-17  1.50E-15  7.26E-16
  3.3218E-03  5.0855E-03  2.1397E-01  2.3662E-01  6.4868E-01  6.7294E-01
  1.0834E+00  1.0883E+00
  prteigrs : nnsclo,ikpt=   30  195 max resid (incl. the buffer)=  1.49938E-15
 Non-SCF case, kpt  196 (  0.52500  0.05000  0.52500), residuals and eigenvalues=
  1.13E-17  6.01E-18  3.32E-18  1.10E-17  1.32E-18  5.20E-19  3.15E-16  6.16E-16
  2.4319E-03  3.1858E-03  2.2440E-01  2.3482E-01  6.4698E-01  6.5812E-01
  1.0887E+00  1.0908E+00
  prteigrs : nnsclo,ikpt=   30  196 max resid (incl. the buffer)=  6.15628E-16
 Non-SCF case, kpt  197 (  0.51250  0.02500  0.51250), residuals and eigenvalues=
  1.66E-17  1.15E-17  2.00E-17  5.05E-18  2.08E-18  1.38E-18  2.14E-18  5.68E-16
  1.8576E-03  2.0455E-03  2.3106E-01  2.3374E-01  6.4596E-01  6.4880E-01
  1.0919E+00  1.0924E+00
  prteigrs : nnsclo,ikpt=   30  197 max resid (incl. the buffer)=  5.68262E-16
 Non-SCF case, kpt  198 (  0.50000  0.00000  0.50000), residuals and eigenvalues=
  9.00E-21  3.71E-19  2.85E-19  1.58E-19  3.10E-20  1.84E-20  4.89E-20  6.14E-19
  1.6741E-03  1.6741E-03  2.3338E-01  2.3338E-01  6.4563E-01  6.4563E-01
  1.0930E+00  1.0930E+00


--- !ResultsGS
iteration_state: {dtset: 1, }
comment   : Summary of ground state results
lattice_vectors:
- [  0.0000000,   3.3517340,   3.3517340, ]
- [  3.3517340,   0.0000000,   3.3517340, ]
- [  3.3517340,   3.3517340,   0.0000000, ]
lattice_lengths: [   4.74007,    4.74007,    4.74007, ]
lattice_angles: [ 60.000,  60.000,  60.000, ] # degrees, (23, 13, 12)
lattice_volume:   7.5307571E+01
convergence: {deltae:  0.000E+00, res2:  0.000E+00, residm:  9.955E-17, diffor:  0.000E+00, }
etotal    :  -1.20746517E+01
entropy   :   0.00000000E+00
fermie    :   4.68313990E-01
cartesian_stress_tensor: null
pressure_GPa: null
xred      :
- [  0.0000E+00,   0.0000E+00,   0.0000E+00,  C]
- [  2.5000E-01,   2.5000E-01,   2.5000E-01,  C]
cartesian_forces: null
force_length_stats: {min: null, max: null, mean: null, }
...

 Integrated electronic density in atomic spheres:
 ------------------------------------------------
 Atom  Sphere_radius  Integrated_density
    1        2.00000          4.70212506
    2        2.00000          4.70212506
================================================================================

 ----iterations are completed or convergence reached----

 Mean square residual over all n,k,spin=   77.907E-19; max=  99.551E-18
 reduced coordinates (array xred) for    2 atoms
       0.000000000000      0.000000000000      0.000000000000
       0.250000000000      0.250000000000      0.250000000000

 cartesian coordinates (angstrom) at end:
    1      0.00000000000000     0.00000000000000     0.00000000000000
    2      0.88683062764281     0.88683062764281     0.88683062764281
 length scales=  1.000000000000  1.000000000000  1.000000000000 bohr
              =  0.529177208590  0.529177208590  0.529177208590 angstroms
 prteigrs : about to open file /Users/gmatteo/git_repos/abitutorials/abitutorials/sigeph/flow_diamond/w0/t1/outdata/out_EIG
 Eigenvalues (hartree) for nkpt= 198  k points:
 kpt#   1, nband=  8, wtk=  1.00000, kpt=  0.0000  0.0000  0.0000 (reduced coord)
  -0.32325    0.46831    0.46831    0.46831    0.67474    0.67474    0.67474    0.98020
 kpt#   2, nband=  8, wtk=  1.00000, kpt=  0.0179  0.0000  0.0179 (reduced coord)
  -0.32281    0.46642    0.46642    0.46729    0.67440    0.67701    0.67701    0.98046
 kpt#   3, nband=  8, wtk=  1.00000, kpt=  0.0357  0.0000  0.0357 (reduced coord)
  -0.32149    0.46098    0.46098    0.46425    0.67341    0.68358    0.68358    0.98116
 kpt#   4, nband=  8, wtk=  1.00000, kpt=  0.0536  0.0000  0.0536 (reduced coord)
  -0.31928    0.45263    0.45263    0.45925    0.67196    0.69388    0.69388    0.98201
 kpt#   5, nband=  8, wtk=  1.00000, kpt=  0.0714  0.0000  0.0714 (reduced coord)
  -0.31619    0.44211    0.44211    0.45237    0.66981    0.70713    0.70713    0.98251
 kpt#   6, nband=  8, wtk=  1.00000, kpt=  0.0893  0.0000  0.0893 (reduced coord)
  -0.31224    0.43009    0.43009    0.44354    0.66693    0.72244    0.72244    0.98193
 kpt#   7, nband=  8, wtk=  1.00000, kpt=  0.1071  0.0000  0.1071 (reduced coord)
  -0.30742    0.41718    0.41718    0.43320    0.66371    0.73934    0.73934    0.97938
 kpt#   8, nband=  8, wtk=  1.00000, kpt=  0.1250  0.0000  0.1250 (reduced coord)
  -0.30171    0.40381    0.40381    0.42143    0.66022    0.75763    0.75763    0.97390
 kpt#   9, nband=  8, wtk=  1.00000, kpt=  0.1429  0.0000  0.1429 (reduced coord)
  -0.29515    0.39024    0.39024    0.40828    0.65648    0.77663    0.77663    0.96468
 kpt#  10, nband=  8, wtk=  1.00000, kpt=  0.1607  0.0000  0.1607 (reduced coord)
  -0.28773    0.37671    0.37671    0.39387    0.65260    0.79627    0.79627    0.95146
 kpt#  11, nband=  8, wtk=  1.00000, kpt=  0.1786  0.0000  0.1786 (reduced coord)
  -0.27946    0.36340    0.36340    0.37832    0.64867    0.81634    0.81634    0.93463
 kpt#  12, nband=  8, wtk=  1.00000, kpt=  0.1964  0.0000  0.1964 (reduced coord)
  -0.27034    0.35034    0.35034    0.36169    0.64469    0.83656    0.83656    0.91502
 kpt#  13, nband=  8, wtk=  1.00000, kpt=  0.2143  0.0000  0.2143 (reduced coord)
  -0.26037    0.33782    0.33782    0.34421    0.64093    0.85709    0.85709    0.89377
 kpt#  14, nband=  8, wtk=  1.00000, kpt=  0.2321  0.0000  0.2321 (reduced coord)
  -0.24958    0.32579    0.32582    0.32582    0.63731    0.87160    0.87763    0.87763
 kpt#  15, nband=  8, wtk=  1.00000, kpt=  0.2500  0.0000  0.2500 (reduced coord)
[...]
  -0.01800    0.04785    0.13692    0.24435    0.74148    0.90636    0.94542    1.00830
 kpt# 177, nband=  8, wtk=  1.00000, kpt=  0.4632  0.3309  0.7059 (reduced coord)
  -0.01992    0.04784    0.14480    0.23547    0.76272    0.89443    0.94567    0.99750
 kpt# 178, nband=  8, wtk=  1.00000, kpt=  0.4779  0.3235  0.6985 (reduced coord)
  -0.02122    0.04769    0.15187    0.22771    0.78433    0.87491    0.95358    0.98657
 kpt# 179, nband=  8, wtk=  1.00000, kpt=  0.4926  0.3162  0.6912 (reduced coord)
  -0.02188    0.04758    0.15631    0.22291    0.80182    0.85769    0.96335    0.97600
 kpt# 180, nband=  8, wtk=  1.00000, kpt=  0.5074  0.3088  0.6838 (reduced coord)
  -0.02188    0.04758    0.15631    0.22291    0.80182    0.85769    0.96335    0.97600
 kpt# 181, nband=  8, wtk=  1.00000, kpt=  0.5221  0.3015  0.6765 (reduced coord)
  -0.02122    0.04769    0.15187    0.22771    0.78433    0.87491    0.95358    0.98657
 kpt# 182, nband=  8, wtk=  1.00000, kpt=  0.5368  0.2941  0.6691 (reduced coord)
  -0.01992    0.04784    0.14480    0.23547    0.76272    0.89443    0.94567    0.99750
 kpt# 183, nband=  8, wtk=  1.00000, kpt=  0.5515  0.2868  0.6618 (reduced coord)
  -0.01800    0.04785    0.13692    0.24435    0.74148    0.90636    0.94542    1.00830
 kpt# 184, nband=  8, wtk=  1.00000, kpt=  0.5662  0.2794  0.6544 (reduced coord)
  -0.01553    0.04748    0.12953    0.25299    0.72210    0.90458    0.95720    1.01901
 kpt# 185, nband=  8, wtk=  1.00000, kpt=  0.5809  0.2721  0.6471 (reduced coord)
  -0.01258    0.04646    0.12358    0.26041    0.70548    0.89644    0.97253    1.02957
 kpt# 186, nband=  8, wtk=  1.00000, kpt=  0.5956  0.2647  0.6397 (reduced coord)
  -0.00932    0.04461    0.11970    0.26580    0.69236    0.88672    0.98584    1.03947
 kpt# 187, nband=  8, wtk=  1.00000, kpt=  0.6103  0.2574  0.6324 (reduced coord)
  -0.00606    0.04208    0.11821    0.26858    0.68344    0.87672    0.99559    1.04730
 kpt# 188, nband=  8, wtk=  1.00000, kpt=  0.6250  0.2500  0.6250 (reduced coord)
  -0.00331    0.03954    0.11908    0.26828    0.67913    0.86688    1.00182    1.05158
 kpt# 189, nband=  8, wtk=  1.00000, kpt=  0.6125  0.2250  0.6125 (reduced coord)
   0.00263    0.03235    0.12770    0.26177    0.67283    0.83410    1.01692    1.05807
 kpt# 190, nband=  8, wtk=  1.00000, kpt=  0.6000  0.2000  0.6000 (reduced coord)
   0.00575    0.02593    0.13980    0.25594    0.66720    0.80213    1.03121    1.06444
 kpt# 191, nband=  8, wtk=  1.00000, kpt=  0.5875  0.1750  0.5875 (reduced coord)
   0.00676    0.02025    0.15421    0.25073    0.66217    0.77118    1.04441    1.07029
 kpt# 192, nband=  8, wtk=  1.00000, kpt=  0.5750  0.1500  0.5750 (reduced coord)
   0.00650    0.01533    0.16991    0.24617    0.65780    0.74232    1.05646    1.07577
 kpt# 193, nband=  8, wtk=  1.00000, kpt=  0.5625  0.1250  0.5625 (reduced coord)
   0.00558    0.01116    0.18578    0.24233    0.65411    0.71587    1.06709    1.08061
 kpt# 194, nband=  8, wtk=  1.00000, kpt=  0.5500  0.1000  0.5500 (reduced coord)
   0.00443    0.00774    0.20079    0.23913    0.65106    0.69248    1.07612    1.08483
 kpt# 195, nband=  8, wtk=  1.00000, kpt=  0.5375  0.0750  0.5375 (reduced coord)
   0.00332    0.00509    0.21397    0.23662    0.64868    0.67294    1.08336    1.08827
 kpt# 196, nband=  8, wtk=  1.00000, kpt=  0.5250  0.0500  0.5250 (reduced coord)
   0.00243    0.00319    0.22440    0.23482    0.64698    0.65812    1.08868    1.09082
 kpt# 197, nband=  8, wtk=  1.00000, kpt=  0.5125  0.0250  0.5125 (reduced coord)
   0.00186    0.00205    0.23106    0.23374    0.64596    0.64880    1.09190    1.09238
 kpt# 198, nband=  8, wtk=  1.00000, kpt=  0.5000  0.0000  0.5000 (reduced coord)
   0.00167    0.00167    0.23338    0.23338    0.64563    0.64563    1.09298    1.09298

== END DATASET(S) ==============================================================
================================================================================
  
 -outvars: echo values of variables after computation  --------
-          iomode           1
            acell      1.0000000000E+00  1.0000000000E+00  1.0000000000E+00 Bohr
              amu      1.20110000E+01
     densfor_pred           6
             ecut      2.50000000E+01 Hartree
-          fftalg         312
           irdden           1
             iscf          -2
           istwfk        2    0    0    0    0    0    0    0    0    0
                         0    0    0    0    0    0    0    0    0    0
                         0    0    0    0    0    0    0    0    1    0
                         0    0    0    0    0    0    0    0    0    0
                         0    0    0    0    0    0    0    0    0    0
                       outvar_i_n : Printing only first  50 k-points.
              kpt      0.00000000E+00  0.00000000E+00  0.00000000E+00
                       1.78571429E-02  0.00000000E+00  1.78571429E-02
                       3.57142857E-02  0.00000000E+00  3.57142857E-02
                       5.35714286E-02  0.00000000E+00  5.35714286E-02
                       7.14285714E-02  0.00000000E+00  7.14285714E-02
                       8.92857143E-02  0.00000000E+00  8.92857143E-02
                       1.07142857E-01  0.00000000E+00  1.07142857E-01
                       1.25000000E-01  0.00000000E+00  1.25000000E-01
                       1.42857143E-01  0.00000000E+00  1.42857143E-01
                       1.60714286E-01  0.00000000E+00  1.60714286E-01
                       1.78571429E-01  0.00000000E+00  1.78571429E-01
                       1.96428571E-01  0.00000000E+00  1.96428571E-01
                       2.14285714E-01  0.00000000E+00  2.14285714E-01
                       2.32142857E-01  0.00000000E+00  2.32142857E-01
                       2.50000000E-01  0.00000000E+00  2.50000000E-01
                       2.67857143E-01  0.00000000E+00  2.67857143E-01
                       2.85714286E-01  0.00000000E+00  2.85714286E-01
                       3.03571429E-01  0.00000000E+00  3.03571429E-01
                       3.21428571E-01  0.00000000E+00  3.21428571E-01
                       3.39285714E-01  0.00000000E+00  3.39285714E-01
                       3.57142857E-01  0.00000000E+00  3.57142857E-01
                       3.75000000E-01  0.00000000E+00  3.75000000E-01
                       3.92857143E-01  0.00000000E+00  3.92857143E-01
                       4.10714286E-01  0.00000000E+00  4.10714286E-01
                       4.28571429E-01  0.00000000E+00  4.28571429E-01
                       4.46428571E-01  0.00000000E+00  4.46428571E-01
                       4.64285714E-01  0.00000000E+00  4.64285714E-01
                       4.82142857E-01  0.00000000E+00  4.82142857E-01
                       5.00000000E-01  0.00000000E+00  5.00000000E-01
                       5.00000000E-01  1.78571429E-02  5.17857143E-01
                       5.00000000E-01  3.57142857E-02  5.35714286E-01
                       5.00000000E-01  5.35714286E-02  5.53571429E-01
                       5.00000000E-01  7.14285714E-02  5.71428571E-01
                       5.00000000E-01  8.92857143E-02  5.89285714E-01
                       5.00000000E-01  1.07142857E-01  6.07142857E-01
                       5.00000000E-01  1.25000000E-01  6.25000000E-01
                       5.00000000E-01  1.42857143E-01  6.42857143E-01
                       5.00000000E-01  1.60714286E-01  6.60714286E-01
                       5.00000000E-01  1.78571429E-01  6.78571429E-01
                       5.00000000E-01  1.96428571E-01  6.96428571E-01
                       5.00000000E-01  2.14285714E-01  7.14285714E-01
                       5.00000000E-01  2.32142857E-01  7.32142857E-01
                       5.00000000E-01  2.50000000E-01  7.50000000E-01
                       4.87500000E-01  2.62500000E-01  7.50000000E-01
                       4.75000000E-01  2.75000000E-01  7.50000000E-01
                       4.62500000E-01  2.87500000E-01  7.50000000E-01
                       4.50000000E-01  3.00000000E-01  7.50000000E-01
                       4.37500000E-01  3.12500000E-01  7.50000000E-01
                       4.25000000E-01  3.25000000E-01  7.50000000E-01
                       4.12500000E-01  3.37500000E-01  7.50000000E-01
                       outvar_i_n : Printing only first  50 k-points.
           kptopt         -11
P           mkmem          99
            natom           2
            nband           8
           nbdbuf           2
           ndivsm          10
            ngfft          24      24      24
             nkpt         198
-           npkpt           2
             nsym          48
           ntypat           1
           ortalg          -2
        paral_kgb           1
            rprim      0.0000000000E+00  3.3517340250E+00  3.3517340250E+00
                       3.3517340250E+00  0.0000000000E+00  3.3517340250E+00
                       3.3517340250E+00  3.3517340250E+00  0.0000000000E+00
           shiftk      5.00000000E-01  5.00000000E-01  5.00000000E-01
          spgroup         227
           symrel      1  0  0   0  1  0   0  0  1      -1  0  0   0 -1  0   0  0 -1
                       0 -1  1   0 -1  0   1 -1  0       0  1 -1   0  1  0  -1  1  0
                      -1  0  0  -1  0  1  -1  1  0       1  0  0   1  0 -1   1 -1  0
                       0  1 -1   1  0 -1   0  0 -1       0 -1  1  -1  0  1   0  0  1
                      -1  0  0  -1  1  0  -1  0  1       1  0  0   1 -1  0   1  0 -1
                       0 -1  1   1 -1  0   0 -1  0       0  1 -1  -1  1  0   0  1  0
                       1  0  0   0  0  1   0  1  0      -1  0  0   0  0 -1   0 -1  0
                       0  1 -1   0  0 -1   1  0 -1       0 -1  1   0  0  1  -1  0  1
                      -1  0  1  -1  1  0  -1  0  0       1  0 -1   1 -1  0   1  0  0
                       0 -1  0   1 -1  0   0 -1  1       0  1  0  -1  1  0   0  1 -1
                       1  0 -1   0  0 -1   0  1 -1      -1  0  1   0  0  1   0 -1  1
                       0  1  0   0  0  1   1  0  0       0 -1  0   0  0 -1  -1  0  0
                       1  0 -1   0  1 -1   0  0 -1      -1  0  1   0 -1  1   0  0  1
                       0 -1  0   0 -1  1   1 -1  0       0  1  0   0  1 -1  -1  1  0
                      -1  0  1  -1  0  0  -1  1  0       1  0 -1   1  0  0   1 -1  0
                       0  1  0   1  0  0   0  0  1       0 -1  0  -1  0  0   0  0 -1
                       0  0 -1   0  1 -1   1  0 -1       0  0  1   0 -1  1  -1  0  1
                       1 -1  0   0 -1  1   0 -1  0      -1  1  0   0  1 -1   0  1  0
                       0  0  1   1  0  0   0  1  0       0  0 -1  -1  0  0   0 -1  0
                      -1  1  0  -1  0  0  -1  0  1       1 -1  0   1  0  0   1  0 -1
                       0  0  1   0  1  0   1  0  0       0  0 -1   0 -1  0  -1  0  0
                       1 -1  0   0 -1  0   0 -1  1      -1  1  0   0  1  0   0  1 -1
                       0  0 -1   1  0 -1   0  1 -1       0  0  1  -1  0  1   0 -1  1
                      -1  1  0  -1  0  1  -1  0  0       1 -1  0   1  0 -1   1  0  0
            tnons      0.0000000  0.0000000  0.0000000     0.2500000  0.2500000  0.2500000
                       0.0000000  0.0000000  0.0000000     0.2500000  0.2500000  0.2500000
                       0.0000000  0.0000000  0.0000000     0.2500000  0.2500000  0.2500000
                       0.0000000  0.0000000  0.0000000     0.2500000  0.2500000  0.2500000
                       0.0000000  0.0000000  0.0000000     0.2500000  0.2500000  0.2500000
                       0.0000000  0.0000000  0.0000000     0.2500000  0.2500000  0.2500000
                       0.0000000  0.0000000  0.0000000     0.2500000  0.2500000  0.2500000
                       0.0000000  0.0000000  0.0000000     0.2500000  0.2500000  0.2500000
                       0.0000000  0.0000000  0.0000000     0.2500000  0.2500000  0.2500000
                       0.0000000  0.0000000  0.0000000     0.2500000  0.2500000  0.2500000
                       0.0000000  0.0000000  0.0000000     0.2500000  0.2500000  0.2500000
                       0.0000000  0.0000000  0.0000000     0.2500000  0.2500000  0.2500000
                       0.0000000  0.0000000  0.0000000     0.2500000  0.2500000  0.2500000
                       0.0000000  0.0000000  0.0000000     0.2500000  0.2500000  0.2500000
                       0.0000000  0.0000000  0.0000000     0.2500000  0.2500000  0.2500000
                       0.0000000  0.0000000  0.0000000     0.2500000  0.2500000  0.2500000
                       0.0000000  0.0000000  0.0000000     0.2500000  0.2500000  0.2500000
                       0.0000000  0.0000000  0.0000000     0.2500000  0.2500000  0.2500000
                       0.0000000  0.0000000  0.0000000     0.2500000  0.2500000  0.2500000
                       0.0000000  0.0000000  0.0000000     0.2500000  0.2500000  0.2500000
                       0.0000000  0.0000000  0.0000000     0.2500000  0.2500000  0.2500000
                       0.0000000  0.0000000  0.0000000     0.2500000  0.2500000  0.2500000
                       0.0000000  0.0000000  0.0000000     0.2500000  0.2500000  0.2500000
                       0.0000000  0.0000000  0.0000000     0.2500000  0.2500000  0.2500000
           tolwfr      1.00000000E-16
            typat      1  1
         wfoptalg         114
                       outvars : Printing only first  50 k-points.
           xangst      0.0000000000E+00  0.0000000000E+00  0.0000000000E+00
                       8.8683062764E-01  8.8683062764E-01  8.8683062764E-01
            xcart      0.0000000000E+00  0.0000000000E+00  0.0000000000E+00
                       1.6758670125E+00  1.6758670125E+00  1.6758670125E+00
             xred      0.0000000000E+00  0.0000000000E+00  0.0000000000E+00
                       2.5000000000E-01  2.5000000000E-01  2.5000000000E-01
            znucl        6.00000

================================================================================


- Timing analysis has been suppressed with timopt=0



================================================================================

 Suggested references for the acknowledgment of ABINIT usage.

 The users of ABINIT have little formal obligations with respect to the ABINIT group
 (those specified in the GNU General Public License, http://www.gnu.org/copyleft/gpl.txt).
 However, it is common practice in the scientific literature,
 to acknowledge the efforts of people that have made the research possible.
 In this spirit, please find below suggested citations of work written by ABINIT developers,
 corresponding to implementations inside of ABINIT that you have used in the present run.
 Note also that it will be of great value to readers of publications presenting these results,
 to read papers enabling them to understand the theoretical formalism and details
 of the ABINIT implementation.
 For information on why they are suggested, see also https://docs.abinit.org/theory/acknowledgments.
-
- [1] Large scale ab initio calculations based on three levels of parallelization
- F. Bottin, S. Leroux, A. Knyazev, G. Zerah, Comput. Mat. Science 42, 329, (2008).
- Comment: in case LOBPCG algorithm is used (wfoptalg=4/14/114).
- Strong suggestion to cite this paper in your publications.
- This paper is also available at http://www.arxiv.org/abs/0707.3405
- DOI and bibtex: see https://docs.abinit.org/theory/bibliography/#bottin2008
-
- [2] The Abinit project: Impact, environment and recent developments.
- Computer Phys. Comm. 248, 107042 (2020).
- X.Gonze, B. Amadon, G. Antonius, F.Arnardi, L.Baguet, J.-M.Beuken,
- J.Bieder, F.Bottin, J.Bouchet, E.Bousquet, N.Brouwer, F.Bruneval,
- G.Brunin, T.Cavignac, J.-B. Charraud, Wei Chen, M.Cote, S.Cottenier,
- J.Denier, G.Geneste, Ph.Ghosez, M.Giantomassi, Y.Gillet, O.Gingras,
- D.R.Hamann, G.Hautier, Xu He, N.Helbig, N.Holzwarth, Y.Jia, F.Jollet,
- W.Lafargue-Dit-Hauret, K.Lejaeghere, M.A.L.Marques, A.Martin, C.Martins,
- H.P.C. Miranda, F.Naccarato, K. Persson, G.Petretto, V.Planes, Y.Pouillon,
- S.Prokhorenko, F.Ricci, G.-M.Rignanese, A.H.Romero, M.M.Schmitt, M.Torrent,
- M.J.van Setten, B.Van Troeye, M.J.Verstraete, G.Zerah and J.W.Zwanzig
- Comment: the fifth generic paper describing the ABINIT project.
- Note that a version of this paper, that is not formatted for Computer Phys. Comm. 
- is available at https://www.abinit.org/sites/default/files/ABINIT20.pdf .
- The licence allows the authors to put it on the Web.
- DOI and bibtex: see https://docs.abinit.org/theory/bibliography/#gonze2020
-
- [3] Recent developments in the ABINIT software package.
- Computer Phys. Comm. 205, 106 (2016).
- X.Gonze, F.Jollet, F.Abreu Araujo, D.Adams, B.Amadon, T.Applencourt,
- C.Audouze, J.-M.Beuken, J.Bieder, A.Bokhanchuk, E.Bousquet, F.Bruneval
- D.Caliste, M.Cote, F.Dahm, F.Da Pieve, M.Delaveau, M.Di Gennaro,
- B.Dorado, C.Espejo, G.Geneste, L.Genovese, A.Gerossier, M.Giantomassi,
- Y.Gillet, D.R.Hamann, L.He, G.Jomard, J.Laflamme Janssen, S.Le Roux,
- A.Levitt, A.Lherbier, F.Liu, I.Lukacevic, A.Martin, C.Martins,
- M.J.T.Oliveira, S.Ponce, Y.Pouillon, T.Rangel, G.-M.Rignanese,
- A.H.Romero, B.Rousseau, O.Rubel, A.A.Shukri, M.Stankovski, M.Torrent,
- M.J.Van Setten, B.Van Troeye, M.J.Verstraete, D.Waroquier, J.Wiktor,
- B.Xu, A.Zhou, J.W.Zwanziger.
- Comment: the fourth generic paper describing the ABINIT project.
- Note that a version of this paper, that is not formatted for Computer Phys. Comm. 
- is available at https://www.abinit.org/sites/default/files/ABINIT16.pdf .
- The licence allows the authors to put it on the Web.
- DOI and bibtex: see https://docs.abinit.org/theory/bibliography/#gonze2016
-
- [4] ABINIT: First-principles approach of materials and nanosystem properties.
- Computer Phys. Comm. 180, 2582-2615 (2009).
- X. Gonze, B. Amadon, P.-M. Anglade, J.-M. Beuken, F. Bottin, P. Boulanger, F. Bruneval,
- D. Caliste, R. Caracas, M. Cote, T. Deutsch, L. Genovese, Ph. Ghosez, M. Giantomassi
- S. Goedecker, D.R. Hamann, P. Hermet, F. Jollet, G. Jomard, S. Leroux, M. Mancini, S. Mazevet,
- M.J.T. Oliveira, G. Onida, Y. Pouillon, T. Rangel, G.-M. Rignanese, D. Sangalli, R. Shaltaf,
- M. Torrent, M.J. Verstraete, G. Zerah, J.W. Zwanziger
- Comment: the third generic paper describing the ABINIT project.
- Note that a version of this paper, that is not formatted for Computer Phys. Comm. 
- is available at https://www.abinit.org/sites/default/files/ABINIT_CPC_v10.pdf .
- The licence allows the authors to put it on the Web.
- DOI and bibtex: see https://docs.abinit.org/theory/bibliography/#gonze2009
-
- And optionally:
-
- [5] A brief introduction to the ABINIT software package.
- Z. Kristallogr. 220, 558-562 (2005).
- X. Gonze, G.-M. Rignanese, M. Verstraete, J.-M. Beuken, Y. Pouillon, R. Caracas, F. Jollet,
- M. Torrent, G. Zerah, M. Mikami, Ph. Ghosez, M. Veithen, J.-Y. Raty, V. Olevano, F. Bruneval,
- L. Reining, R. Godby, G. Onida, D.R. Hamann, and D.C. Allan.
- Comment: the second generic paper describing the ABINIT project. Note that this paper
- should be cited especially if you are using the GW part of ABINIT, as several authors
- of this part are not in the list of authors of the first or third paper.
- The .pdf of the latter paper is available at https://www.abinit.org/sites/default/files/zfk_0505-06_558-562.pdf.
- Note that it should not redistributed (Copyright by Oldenburg Wissenschaftverlag,
- the licence allows the authors to put it on the Web).
- DOI and bibtex: see https://docs.abinit.org/theory/bibliography/#gonze2005
-
- Proc.   0 individual time (sec): cpu=         20.1  wall=         24.9

================================================================================

 Calculation completed.
.Delivered   0 WARNINGs and   2 COMMENTs to log file.
+Overall time at end (sec) : cpu=         40.6  wall=         49.8
