
.Version 8.5.3 of ABINIT 
.(MPI version, prepared for a x86_64_darwin16.7.0_gnu4.8 computer) 

.Copyright (C) 1998-2017 ABINIT group . 
 ABINIT comes with ABSOLUTELY NO WARRANTY.
 It is free software, and you are welcome to redistribute it
 under certain conditions (GNU General Public License,
 see ~abinit/COPYING or http://www.gnu.org/copyleft/gpl.txt).

 ABINIT is a project of the Universite Catholique de Louvain,
 Corning Inc. and other collaborators, see ~abinit/doc/developers/contributors.txt .
 Please read ~abinit/doc/users/acknowledgments.html for suggested
 acknowledgments of the ABINIT effort.
 For more information, see http://www.abinit.org .

.Starting date : Fri 13 Oct 2017.
- ( at 15h19 )
  
- input  file    -> /Users/gmatteo/git_repos/abitutorials/abitutorials/bse/flow_bse_kconv/w2/t2/run.abi
- output file    -> /Users/gmatteo/git_repos/abitutorials/abitutorials/bse/flow_bse_kconv/w2/t2/run.abo
- root for input  files -> /Users/gmatteo/git_repos/abitutorials/abitutorials/bse/flow_bse_kconv/w2/t2/indata/in
- root for output files -> /Users/gmatteo/git_repos/abitutorials/abitutorials/bse/flow_bse_kconv/w2/t2/outdata/out


 Symmetries : space group Fd -3 m (#227); Bravais cF (face-center cubic)
================================================================================
 Values of the parameters that define the memory need of the present run
     intxc =       0    ionmov =       0      iscf =       7    lmnmax =       2
     lnmax =       2     mgfft =      16  mpssoang =       3    mqgrid =    3001
     natom =       2  nloc_mem =       1    nspden =       1   nspinor =       1
    nsppol =       1      nsym =      48    n1xccc =    2501    ntypat =       1
    occopt =       1   xclevel =       1
-    mband =           6        mffmem =           1         mkmem =         256
       mpw =         153          nfft =        4096          nkpt =         512
================================================================================
P This job should need less than                       6.214 Mbytes of memory.
  Rough estimation (10% accuracy) of disk space for files :
_ WF disk file :      7.174 Mbytes ; DEN or POT disk file :      0.033 Mbytes.
================================================================================

--------------------------------------------------------------------------------
------------- Echo of variables that govern the present computation ------------
--------------------------------------------------------------------------------
-
- outvars: echo of selected default values                                      
-   iomode0 =  0 , fftalg0 =112 , wfoptalg0 =  0
-
- outvars: echo of global parameters not present in the input file              
-  max_nthreads =    0
-
 -outvars: echo values of preprocessed input variables --------
            acell      1.0000000000E+00  1.0000000000E+00  1.0000000000E+00 Bohr
              amu      2.80855000E+01
  bs_coulomb_term          21
     bs_freq_mesh      0.00000000E+00  2.20495952E-01  7.34986508E-04 Hartree
        bs_loband           2
      chksymbreak           0
           diemac      1.20000000E+01
             ecut      5.10559920E+00 Hartree
          ecuteps      2.26915520E+00 Hartree
          ecutwfn      5.10559920E+00 Hartree
-          fftalg         112
           irdwfk           1
              kpt      1.37500000E-02  2.62500000E-02  3.87500000E-02
                       1.38750000E-01  2.62500000E-02  3.87500000E-02
                       2.63750000E-01  2.62500000E-02  3.87500000E-02
                       3.88750000E-01  2.62500000E-02  3.87500000E-02
                      -4.86250000E-01  2.62500000E-02  3.87500000E-02
                      -3.61250000E-01  2.62500000E-02  3.87500000E-02
                      -2.36250000E-01  2.62500000E-02  3.87500000E-02
                      -1.11250000E-01  2.62500000E-02  3.87500000E-02
                       1.37500000E-02  1.51250000E-01  3.87500000E-02
                       1.38750000E-01  1.51250000E-01  3.87500000E-02
                       2.63750000E-01  1.51250000E-01  3.87500000E-02
                       3.88750000E-01  1.51250000E-01  3.87500000E-02
                      -4.86250000E-01  1.51250000E-01  3.87500000E-02
                      -3.61250000E-01  1.51250000E-01  3.87500000E-02
                      -2.36250000E-01  1.51250000E-01  3.87500000E-02
                      -1.11250000E-01  1.51250000E-01  3.87500000E-02
                       1.37500000E-02  2.76250000E-01  3.87500000E-02
                       1.38750000E-01  2.76250000E-01  3.87500000E-02
                       2.63750000E-01  2.76250000E-01  3.87500000E-02
                       3.88750000E-01  2.76250000E-01  3.87500000E-02
                      -4.86250000E-01  2.76250000E-01  3.87500000E-02
                      -3.61250000E-01  2.76250000E-01  3.87500000E-02
                      -2.36250000E-01  2.76250000E-01  3.87500000E-02
                      -1.11250000E-01  2.76250000E-01  3.87500000E-02
                       1.37500000E-02  4.01250000E-01  3.87500000E-02
                       1.38750000E-01  4.01250000E-01  3.87500000E-02
                       2.63750000E-01  4.01250000E-01  3.87500000E-02
                       3.88750000E-01  4.01250000E-01  3.87500000E-02
                      -4.86250000E-01  4.01250000E-01  3.87500000E-02
                      -3.61250000E-01  4.01250000E-01  3.87500000E-02
                      -2.36250000E-01  4.01250000E-01  3.87500000E-02
                      -1.11250000E-01  4.01250000E-01  3.87500000E-02
                       1.37500000E-02 -4.73750000E-01  3.87500000E-02
                       1.38750000E-01 -4.73750000E-01  3.87500000E-02
                       2.63750000E-01 -4.73750000E-01  3.87500000E-02
                       3.88750000E-01 -4.73750000E-01  3.87500000E-02
                      -4.86250000E-01 -4.73750000E-01  3.87500000E-02
                      -3.61250000E-01 -4.73750000E-01  3.87500000E-02
                      -2.36250000E-01 -4.73750000E-01  3.87500000E-02
                      -1.11250000E-01 -4.73750000E-01  3.87500000E-02
                       1.37500000E-02 -3.48750000E-01  3.87500000E-02
                       1.38750000E-01 -3.48750000E-01  3.87500000E-02
                       2.63750000E-01 -3.48750000E-01  3.87500000E-02
                       3.88750000E-01 -3.48750000E-01  3.87500000E-02
                      -4.86250000E-01 -3.48750000E-01  3.87500000E-02
                      -3.61250000E-01 -3.48750000E-01  3.87500000E-02
                      -2.36250000E-01 -3.48750000E-01  3.87500000E-02
                      -1.11250000E-01 -3.48750000E-01  3.87500000E-02
                       1.37500000E-02 -2.23750000E-01  3.87500000E-02
                       1.38750000E-01 -2.23750000E-01  3.87500000E-02
                       outvar_i_n : Printing only first  50 k-points.
         kptrlatt        8    0    0      0    8    0      0    0    8
          kptrlen      5.77960799E+01
       mbpt_sciss      2.93994603E-02 Hartree
       mdf_epsinf      1.20000000E+01
P           mkmem         256
            natom           2
            nband           6
            ngfft          16      16      16
             nkpt         512
           npweps          59
           npwwfn         169
             nsym          48
           ntypat           1
              occ      2.000000  2.000000  2.000000  2.000000  0.000000  0.000000
        optdriver          99
            rprim      0.0000000000E+00  5.1085000000E+00  5.1085000000E+00
                       5.1085000000E+00  0.0000000000E+00  5.1085000000E+00
                       5.1085000000E+00  5.1085000000E+00  0.0000000000E+00
           shiftk      1.10000000E-01  2.10000000E-01  3.10000000E-01
          spgroup         227
           symrel      1  0  0   0  1  0   0  0  1      -1  0  0   0 -1  0   0  0 -1
                       0 -1  1   0 -1  0   1 -1  0       0  1 -1   0  1  0  -1  1  0
                      -1  0  0  -1  0  1  -1  1  0       1  0  0   1  0 -1   1 -1  0
                       0  1 -1   1  0 -1   0  0 -1       0 -1  1  -1  0  1   0  0  1
                      -1  0  0  -1  1  0  -1  0  1       1  0  0   1 -1  0   1  0 -1
                       0 -1  1   1 -1  0   0 -1  0       0  1 -1  -1  1  0   0  1  0
                       1  0  0   0  0  1   0  1  0      -1  0  0   0  0 -1   0 -1  0
                       0  1 -1   0  0 -1   1  0 -1       0 -1  1   0  0  1  -1  0  1
                      -1  0  1  -1  1  0  -1  0  0       1  0 -1   1 -1  0   1  0  0
                       0 -1  0   1 -1  0   0 -1  1       0  1  0  -1  1  0   0  1 -1
                       1  0 -1   0  0 -1   0  1 -1      -1  0  1   0  0  1   0 -1  1
                       0  1  0   0  0  1   1  0  0       0 -1  0   0  0 -1  -1  0  0
                       1  0 -1   0  1 -1   0  0 -1      -1  0  1   0 -1  1   0  0  1
                       0 -1  0   0 -1  1   1 -1  0       0  1  0   0  1 -1  -1  1  0
                      -1  0  1  -1  0  0  -1  1  0       1  0 -1   1  0  0   1 -1  0
                       0  1  0   1  0  0   0  0  1       0 -1  0  -1  0  0   0  0 -1
                       0  0 -1   0  1 -1   1  0 -1       0  0  1   0 -1  1  -1  0  1
                       1 -1  0   0 -1  1   0 -1  0      -1  1  0   0  1 -1   0  1  0
                       0  0  1   1  0  0   0  1  0       0  0 -1  -1  0  0   0 -1  0
                      -1  1  0  -1  0  0  -1  0  1       1 -1  0   1  0  0   1  0 -1
                       0  0  1   0  1  0   1  0  0       0  0 -1   0 -1  0  -1  0  0
                       1 -1  0   0 -1  0   0 -1  1      -1  1  0   0  1  0   0  1 -1
                       0  0 -1   1  0 -1   0  1 -1       0  0  1  -1  0  1   0 -1  1
                      -1  1  0  -1  0  1  -1  0  0       1 -1  0   1  0 -1   1  0  0
            tnons      0.0000000  0.0000000  0.0000000     0.2500000  0.2500000  0.2500000
                       0.0000000  0.0000000  0.0000000     0.2500000  0.2500000  0.2500000
                       0.0000000  0.0000000  0.0000000     0.2500000  0.2500000  0.2500000
                       0.0000000  0.0000000  0.0000000     0.2500000  0.2500000  0.2500000
                       0.0000000  0.0000000  0.0000000     0.2500000  0.2500000  0.2500000
                       0.0000000  0.0000000  0.0000000     0.2500000  0.2500000  0.2500000
                       0.0000000  0.0000000  0.0000000     0.2500000  0.2500000  0.2500000
                       0.0000000  0.0000000  0.0000000     0.2500000  0.2500000  0.2500000
                       0.0000000  0.0000000  0.0000000     0.2500000  0.2500000  0.2500000
                       0.0000000  0.0000000  0.0000000     0.2500000  0.2500000  0.2500000
                       0.0000000  0.0000000  0.0000000     0.2500000  0.2500000  0.2500000
                       0.0000000  0.0000000  0.0000000     0.2500000  0.2500000  0.2500000
                       0.0000000  0.0000000  0.0000000     0.2500000  0.2500000  0.2500000
                       0.0000000  0.0000000  0.0000000     0.2500000  0.2500000  0.2500000
                       0.0000000  0.0000000  0.0000000     0.2500000  0.2500000  0.2500000
                       0.0000000  0.0000000  0.0000000     0.2500000  0.2500000  0.2500000
                       0.0000000  0.0000000  0.0000000     0.2500000  0.2500000  0.2500000
                       0.0000000  0.0000000  0.0000000     0.2500000  0.2500000  0.2500000
                       0.0000000  0.0000000  0.0000000     0.2500000  0.2500000  0.2500000
                       0.0000000  0.0000000  0.0000000     0.2500000  0.2500000  0.2500000
                       0.0000000  0.0000000  0.0000000     0.2500000  0.2500000  0.2500000
                       0.0000000  0.0000000  0.0000000     0.2500000  0.2500000  0.2500000
                       0.0000000  0.0000000  0.0000000     0.2500000  0.2500000  0.2500000
                       0.0000000  0.0000000  0.0000000     0.2500000  0.2500000  0.2500000
            typat      1  1
              wtk        0.00195    0.00195    0.00195    0.00195    0.00195    0.00195
                         0.00195    0.00195    0.00195    0.00195    0.00195    0.00195
                         0.00195    0.00195    0.00195    0.00195    0.00195    0.00195
                         0.00195    0.00195    0.00195    0.00195    0.00195    0.00195
                         0.00195    0.00195    0.00195    0.00195    0.00195    0.00195
                         0.00195    0.00195    0.00195    0.00195    0.00195    0.00195
                         0.00195    0.00195    0.00195    0.00195    0.00195    0.00195
                         0.00195    0.00195    0.00195    0.00195    0.00195    0.00195
                         0.00195    0.00195
                       outvars : Printing only first  50 k-points.
           xangst      0.0000000000E+00  0.0000000000E+00  0.0000000000E+00
                       1.3516508850E+00  1.3516508850E+00  1.3516508850E+00
            xcart      0.0000000000E+00  0.0000000000E+00  0.0000000000E+00
                       2.5542500000E+00  2.5542500000E+00  2.5542500000E+00
             xred      0.0000000000E+00  0.0000000000E+00  0.0000000000E+00
                       2.5000000000E-01  2.5000000000E-01  2.5000000000E-01
             zcut      5.51239881E-03 Hartree
            znucl       14.00000

================================================================================

 chkinp: Checking input parameters for consistency.

================================================================================
== DATASET  1 ==================================================================
-   nproc =    2

 Exchange-correlation functional for the present dataset will be:
  LDA: new Teter (4/93) with spin-polarized option - ixc=1
 Citation for XC functional:
  S. Goedecker, M. Teter, J. Huetter, PRB 54, 1703 (1996)

 Exciton: Calculation of dielectric properties by solving the Bethe-Salpeter equation 
 in frequency domain and reciprocal space on a transitions basis set. 
 Based on a program developed by L. Reining, V. Olevano, F. Sottile, 
 S. Albrecht, and G. Onida. Incorporated in ABINIT by M. Giantomassi. 

.Using double precision arithmetic ; gwpc =  8

 Real(R)+Recip(G) space primitive vectors, cartesian coordinates (Bohr,Bohr^-1):
 R(1)=  0.0000000  5.1085000  5.1085000  G(1)= -0.0978761  0.0978761  0.0978761
 R(2)=  5.1085000  0.0000000  5.1085000  G(2)=  0.0978761 -0.0978761  0.0978761
 R(3)=  5.1085000  5.1085000  0.0000000  G(3)=  0.0978761  0.0978761 -0.0978761
 Unit cell volume ucvol=  2.6663072E+02 bohr^3
 Angles (23,13,12)=  6.00000000E+01  6.00000000E+01  6.00000000E+01 degrees

--- Pseudopotential description ------------------------------------------------
- pspini: atom type   1  psp file is /Users/gmatteo/git_repos/abipy/abipy/data/pseudos/14si.pspnc
- pspatm: opening atomic psp file    /Users/gmatteo/git_repos/abipy/abipy/data/pseudos/14si.pspnc
-  Troullier-Martins psp for element  Si        Thu Oct 27 17:31:21 EDT 1994
- 14.00000   4.00000    940714                znucl, zion, pspdat
    1    1    2    2      2001   0.00000      pspcod,pspxc,lmax,lloc,mmax,r2well
    0   5.907  14.692    1   2.0872718        l,e99.0,e99.9,nproj,rcpsp
   0.00000000   0.00000000   0.00000000   0.00000000     rms, ekb1, ekb2, epsatm
    1   2.617   4.181    1   2.0872718        l,e99.0,e99.9,nproj,rcpsp
   0.00000000   0.00000000   0.00000000   0.00000000     rms, ekb1, ekb2, epsatm
    2   0.000   0.000    0   2.0872718        l,e99.0,e99.9,nproj,rcpsp
   0.00000000   0.00000000   0.00000000   0.00000000     rms, ekb1, ekb2, epsatm
    1.80626423934776    0.22824404341771    1.17378968127746   rchrg,fchrg,qchrg
  pspatm : epsatm=    1.43386982
         --- l  ekb(1:nproj) -->
             0    3.287949
             1    1.849886
 pspatm: atomic psp has been read  and splines computed

   2.29419171E+01                                ecore*ucvol(ha*bohr**3)
--------------------------------------------------------------------------------

 ==== K-mesh for the wavefunctions ====
 Number of points in the irreducible wedge :   512
 Reduced coordinates and weights : 

     1)     1.37500000E-02  2.62500000E-02  3.87500000E-02       0.00195
     2)     1.38750000E-01  2.62500000E-02  3.87500000E-02       0.00195
     3)     2.63750000E-01  2.62500000E-02  3.87500000E-02       0.00195
     4)     3.88750000E-01  2.62500000E-02  3.87500000E-02       0.00195
     5)    -4.86250000E-01  2.62500000E-02  3.87500000E-02       0.00195
     6)    -3.61250000E-01  2.62500000E-02  3.87500000E-02       0.00195
     7)    -2.36250000E-01  2.62500000E-02  3.87500000E-02       0.00195
     8)    -1.11250000E-01  2.62500000E-02  3.87500000E-02       0.00195
     9)     1.37500000E-02  1.51250000E-01  3.87500000E-02       0.00195
    10)     1.38750000E-01  1.51250000E-01  3.87500000E-02       0.00195
    11)     2.63750000E-01  1.51250000E-01  3.87500000E-02       0.00195
    12)     3.88750000E-01  1.51250000E-01  3.87500000E-02       0.00195
    13)    -4.86250000E-01  1.51250000E-01  3.87500000E-02       0.00195
    14)    -3.61250000E-01  1.51250000E-01  3.87500000E-02       0.00195
    15)    -2.36250000E-01  1.51250000E-01  3.87500000E-02       0.00195
    16)    -1.11250000E-01  1.51250000E-01  3.87500000E-02       0.00195
    17)     1.37500000E-02  2.76250000E-01  3.87500000E-02       0.00195
    18)     1.38750000E-01  2.76250000E-01  3.87500000E-02       0.00195
    19)     2.63750000E-01  2.76250000E-01  3.87500000E-02       0.00195
    20)     3.88750000E-01  2.76250000E-01  3.87500000E-02       0.00195
    21)    -4.86250000E-01  2.76250000E-01  3.87500000E-02       0.00195
    22)    -3.61250000E-01  2.76250000E-01  3.87500000E-02       0.00195
    23)    -2.36250000E-01  2.76250000E-01  3.87500000E-02       0.00195
    24)    -1.11250000E-01  2.76250000E-01  3.87500000E-02       0.00195
    25)     1.37500000E-02  4.01250000E-01  3.87500000E-02       0.00195
    26)     1.38750000E-01  4.01250000E-01  3.87500000E-02       0.00195
    27)     2.63750000E-01  4.01250000E-01  3.87500000E-02       0.00195
    28)     3.88750000E-01  4.01250000E-01  3.87500000E-02       0.00195
    29)    -4.86250000E-01  4.01250000E-01  3.87500000E-02       0.00195
    30)    -3.61250000E-01  4.01250000E-01  3.87500000E-02       0.00195
    31)    -2.36250000E-01  4.01250000E-01  3.87500000E-02       0.00195
    32)    -1.11250000E-01  4.01250000E-01  3.87500000E-02       0.00195
    33)     1.37500000E-02 -4.73750000E-01  3.87500000E-02       0.00195
    34)     1.38750000E-01 -4.73750000E-01  3.87500000E-02       0.00195
    35)     2.63750000E-01 -4.73750000E-01  3.87500000E-02       0.00195
    36)     3.88750000E-01 -4.73750000E-01  3.87500000E-02       0.00195
    37)    -4.86250000E-01 -4.73750000E-01  3.87500000E-02       0.00195
    38)    -3.61250000E-01 -4.73750000E-01  3.87500000E-02       0.00195
    39)    -2.36250000E-01 -4.73750000E-01  3.87500000E-02       0.00195
    40)    -1.11250000E-01 -4.73750000E-01  3.87500000E-02       0.00195
    41)     1.37500000E-02 -3.48750000E-01  3.87500000E-02       0.00195
    42)     1.38750000E-01 -3.48750000E-01  3.87500000E-02       0.00195
    43)     2.63750000E-01 -3.48750000E-01  3.87500000E-02       0.00195
    44)     3.88750000E-01 -3.48750000E-01  3.87500000E-02       0.00195
    45)    -4.86250000E-01 -3.48750000E-01  3.87500000E-02       0.00195
    46)    -3.61250000E-01 -3.48750000E-01  3.87500000E-02       0.00195
    47)    -2.36250000E-01 -3.48750000E-01  3.87500000E-02       0.00195
    48)    -1.11250000E-01 -3.48750000E-01  3.87500000E-02       0.00195
    49)     1.37500000E-02 -2.23750000E-01  3.87500000E-02       0.00195
    50)     1.38750000E-01 -2.23750000E-01  3.87500000E-02       0.00195
    51)     2.63750000E-01 -2.23750000E-01  3.87500000E-02       0.00195
    52)     3.88750000E-01 -2.23750000E-01  3.87500000E-02       0.00195
    53)    -4.86250000E-01 -2.23750000E-01  3.87500000E-02       0.00195
    54)    -3.61250000E-01 -2.23750000E-01  3.87500000E-02       0.00195
    55)    -2.36250000E-01 -2.23750000E-01  3.87500000E-02       0.00195
    56)    -1.11250000E-01 -2.23750000E-01  3.87500000E-02       0.00195
    57)     1.37500000E-02 -9.87500000E-02  3.87500000E-02       0.00195
    58)     1.38750000E-01 -9.87500000E-02  3.87500000E-02       0.00195
    59)     2.63750000E-01 -9.87500000E-02  3.87500000E-02       0.00195
    60)     3.88750000E-01 -9.87500000E-02  3.87500000E-02       0.00195
    61)    -4.86250000E-01 -9.87500000E-02  3.87500000E-02       0.00195
    62)    -3.61250000E-01 -9.87500000E-02  3.87500000E-02       0.00195
    63)    -2.36250000E-01 -9.87500000E-02  3.87500000E-02       0.00195
    64)    -1.11250000E-01 -9.87500000E-02  3.87500000E-02       0.00195
    65)     1.37500000E-02  2.62500000E-02  1.63750000E-01       0.00195
    66)     1.38750000E-01  2.62500000E-02  1.63750000E-01       0.00195
    67)     2.63750000E-01  2.62500000E-02  1.63750000E-01       0.00195
    68)     3.88750000E-01  2.62500000E-02  1.63750000E-01       0.00195
    69)    -4.86250000E-01  2.62500000E-02  1.63750000E-01       0.00195
    70)    -3.61250000E-01  2.62500000E-02  1.63750000E-01       0.00195
    71)    -2.36250000E-01  2.62500000E-02  1.63750000E-01       0.00195
    72)    -1.11250000E-01  2.62500000E-02  1.63750000E-01       0.00195
    73)     1.37500000E-02  1.51250000E-01  1.63750000E-01       0.00195
    74)     1.38750000E-01  1.51250000E-01  1.63750000E-01       0.00195
    75)     2.63750000E-01  1.51250000E-01  1.63750000E-01       0.00195
    76)     3.88750000E-01  1.51250000E-01  1.63750000E-01       0.00195
    77)    -4.86250000E-01  1.51250000E-01  1.63750000E-01       0.00195
    78)    -3.61250000E-01  1.51250000E-01  1.63750000E-01       0.00195
    79)    -2.36250000E-01  1.51250000E-01  1.63750000E-01       0.00195
    80)    -1.11250000E-01  1.51250000E-01  1.63750000E-01       0.00195
    81)     1.37500000E-02  2.76250000E-01  1.63750000E-01       0.00195
    82)     1.38750000E-01  2.76250000E-01  1.63750000E-01       0.00195
    83)     2.63750000E-01  2.76250000E-01  1.63750000E-01       0.00195
    84)     3.88750000E-01  2.76250000E-01  1.63750000E-01       0.00195
    85)    -4.86250000E-01  2.76250000E-01  1.63750000E-01       0.00195
    86)    -3.61250000E-01  2.76250000E-01  1.63750000E-01       0.00195
    87)    -2.36250000E-01  2.76250000E-01  1.63750000E-01       0.00195
    88)    -1.11250000E-01  2.76250000E-01  1.63750000E-01       0.00195
    89)     1.37500000E-02  4.01250000E-01  1.63750000E-01       0.00195
    90)     1.38750000E-01  4.01250000E-01  1.63750000E-01       0.00195
    91)     2.63750000E-01  4.01250000E-01  1.63750000E-01       0.00195
    92)     3.88750000E-01  4.01250000E-01  1.63750000E-01       0.00195
    93)    -4.86250000E-01  4.01250000E-01  1.63750000E-01       0.00195
    94)    -3.61250000E-01  4.01250000E-01  1.63750000E-01       0.00195
    95)    -2.36250000E-01  4.01250000E-01  1.63750000E-01       0.00195
    96)    -1.11250000E-01  4.01250000E-01  1.63750000E-01       0.00195
    97)     1.37500000E-02 -4.73750000E-01  1.63750000E-01       0.00195
    98)     1.38750000E-01 -4.73750000E-01  1.63750000E-01       0.00195
    99)     2.63750000E-01 -4.73750000E-01  1.63750000E-01       0.00195
   100)     3.88750000E-01 -4.73750000E-01  1.63750000E-01       0.00195
   101)    -4.86250000E-01 -4.73750000E-01  1.63750000E-01       0.00195
   102)    -3.61250000E-01 -4.73750000E-01  1.63750000E-01       0.00195
   103)    -2.36250000E-01 -4.73750000E-01  1.63750000E-01       0.00195
   104)    -1.11250000E-01 -4.73750000E-01  1.63750000E-01       0.00195
   105)     1.37500000E-02 -3.48750000E-01  1.63750000E-01       0.00195
   106)     1.38750000E-01 -3.48750000E-01  1.63750000E-01       0.00195
   107)     2.63750000E-01 -3.48750000E-01  1.63750000E-01       0.00195
   108)     3.88750000E-01 -3.48750000E-01  1.63750000E-01       0.00195
   109)    -4.86250000E-01 -3.48750000E-01  1.63750000E-01       0.00195
   110)    -3.61250000E-01 -3.48750000E-01  1.63750000E-01       0.00195
   111)    -2.36250000E-01 -3.48750000E-01  1.63750000E-01       0.00195
   112)    -1.11250000E-01 -3.48750000E-01  1.63750000E-01       0.00195
   113)     1.37500000E-02 -2.23750000E-01  1.63750000E-01       0.00195
   114)     1.38750000E-01 -2.23750000E-01  1.63750000E-01       0.00195
   115)     2.63750000E-01 -2.23750000E-01  1.63750000E-01       0.00195
   116)     3.88750000E-01 -2.23750000E-01  1.63750000E-01       0.00195
   117)    -4.86250000E-01 -2.23750000E-01  1.63750000E-01       0.00195
   118)    -3.61250000E-01 -2.23750000E-01  1.63750000E-01       0.00195
   119)    -2.36250000E-01 -2.23750000E-01  1.63750000E-01       0.00195
   120)    -1.11250000E-01 -2.23750000E-01  1.63750000E-01       0.00195
   121)     1.37500000E-02 -9.87500000E-02  1.63750000E-01       0.00195
   122)     1.38750000E-01 -9.87500000E-02  1.63750000E-01       0.00195
   123)     2.63750000E-01 -9.87500000E-02  1.63750000E-01       0.00195
   124)     3.88750000E-01 -9.87500000E-02  1.63750000E-01       0.00195
   125)    -4.86250000E-01 -9.87500000E-02  1.63750000E-01       0.00195
   126)    -3.61250000E-01 -9.87500000E-02  1.63750000E-01       0.00195
   127)    -2.36250000E-01 -9.87500000E-02  1.63750000E-01       0.00195
   128)    -1.11250000E-01 -9.87500000E-02  1.63750000E-01       0.00195
   129)     1.37500000E-02  2.62500000E-02  2.88750000E-01       0.00195
   130)     1.38750000E-01  2.62500000E-02  2.88750000E-01       0.00195
   131)     2.63750000E-01  2.62500000E-02  2.88750000E-01       0.00195
   132)     3.88750000E-01  2.62500000E-02  2.88750000E-01       0.00195
   133)    -4.86250000E-01  2.62500000E-02  2.88750000E-01       0.00195
   134)    -3.61250000E-01  2.62500000E-02  2.88750000E-01       0.00195
   135)    -2.36250000E-01  2.62500000E-02  2.88750000E-01       0.00195
   136)    -1.11250000E-01  2.62500000E-02  2.88750000E-01       0.00195
   137)     1.37500000E-02  1.51250000E-01  2.88750000E-01       0.00195
   138)     1.38750000E-01  1.51250000E-01  2.88750000E-01       0.00195
   139)     2.63750000E-01  1.51250000E-01  2.88750000E-01       0.00195
   140)     3.88750000E-01  1.51250000E-01  2.88750000E-01       0.00195
   141)    -4.86250000E-01  1.51250000E-01  2.88750000E-01       0.00195
   142)    -3.61250000E-01  1.51250000E-01  2.88750000E-01       0.00195
   143)    -2.36250000E-01  1.51250000E-01  2.88750000E-01       0.00195
   144)    -1.11250000E-01  1.51250000E-01  2.88750000E-01       0.00195
   145)     1.37500000E-02  2.76250000E-01  2.88750000E-01       0.00195
   146)     1.38750000E-01  2.76250000E-01  2.88750000E-01       0.00195
   147)     2.63750000E-01  2.76250000E-01  2.88750000E-01       0.00195
   148)     3.88750000E-01  2.76250000E-01  2.88750000E-01       0.00195
   149)    -4.86250000E-01  2.76250000E-01  2.88750000E-01       0.00195
   150)    -3.61250000E-01  2.76250000E-01  2.88750000E-01       0.00195
   151)    -2.36250000E-01  2.76250000E-01  2.88750000E-01       0.00195
   152)    -1.11250000E-01  2.76250000E-01  2.88750000E-01       0.00195
   153)     1.37500000E-02  4.01250000E-01  2.88750000E-01       0.00195
   154)     1.38750000E-01  4.01250000E-01  2.88750000E-01       0.00195
   155)     2.63750000E-01  4.01250000E-01  2.88750000E-01       0.00195
   156)     3.88750000E-01  4.01250000E-01  2.88750000E-01       0.00195
   157)    -4.86250000E-01  4.01250000E-01  2.88750000E-01       0.00195
   158)    -3.61250000E-01  4.01250000E-01  2.88750000E-01       0.00195
   159)    -2.36250000E-01  4.01250000E-01  2.88750000E-01       0.00195
   160)    -1.11250000E-01  4.01250000E-01  2.88750000E-01       0.00195
   161)     1.37500000E-02 -4.73750000E-01  2.88750000E-01       0.00195
   162)     1.38750000E-01 -4.73750000E-01  2.88750000E-01       0.00195
   163)     2.63750000E-01 -4.73750000E-01  2.88750000E-01       0.00195
   164)     3.88750000E-01 -4.73750000E-01  2.88750000E-01       0.00195
   165)    -4.86250000E-01 -4.73750000E-01  2.88750000E-01       0.00195
   166)    -3.61250000E-01 -4.73750000E-01  2.88750000E-01       0.00195
   167)    -2.36250000E-01 -4.73750000E-01  2.88750000E-01       0.00195
   168)    -1.11250000E-01 -4.73750000E-01  2.88750000E-01       0.00195
   169)     1.37500000E-02 -3.48750000E-01  2.88750000E-01       0.00195
   170)     1.38750000E-01 -3.48750000E-01  2.88750000E-01       0.00195
   171)     2.63750000E-01 -3.48750000E-01  2.88750000E-01       0.00195
   172)     3.88750000E-01 -3.48750000E-01  2.88750000E-01       0.00195
   173)    -4.86250000E-01 -3.48750000E-01  2.88750000E-01       0.00195
   174)    -3.61250000E-01 -3.48750000E-01  2.88750000E-01       0.00195
   175)    -2.36250000E-01 -3.48750000E-01  2.88750000E-01       0.00195
   176)    -1.11250000E-01 -3.48750000E-01  2.88750000E-01       0.00195
   177)     1.37500000E-02 -2.23750000E-01  2.88750000E-01       0.00195
   178)     1.38750000E-01 -2.23750000E-01  2.88750000E-01       0.00195
   179)     2.63750000E-01 -2.23750000E-01  2.88750000E-01       0.00195
   180)     3.88750000E-01 -2.23750000E-01  2.88750000E-01       0.00195
   181)    -4.86250000E-01 -2.23750000E-01  2.88750000E-01       0.00195
   182)    -3.61250000E-01 -2.23750000E-01  2.88750000E-01       0.00195
   183)    -2.36250000E-01 -2.23750000E-01  2.88750000E-01       0.00195
   184)    -1.11250000E-01 -2.23750000E-01  2.88750000E-01       0.00195
   185)     1.37500000E-02 -9.87500000E-02  2.88750000E-01       0.00195
   186)     1.38750000E-01 -9.87500000E-02  2.88750000E-01       0.00195
   187)     2.63750000E-01 -9.87500000E-02  2.88750000E-01       0.00195
   188)     3.88750000E-01 -9.87500000E-02  2.88750000E-01       0.00195
   189)    -4.86250000E-01 -9.87500000E-02  2.88750000E-01       0.00195
   190)    -3.61250000E-01 -9.87500000E-02  2.88750000E-01       0.00195
   191)    -2.36250000E-01 -9.87500000E-02  2.88750000E-01       0.00195
   192)    -1.11250000E-01 -9.87500000E-02  2.88750000E-01       0.00195
   193)     1.37500000E-02  2.62500000E-02  4.13750000E-01       0.00195
   194)     1.38750000E-01  2.62500000E-02  4.13750000E-01       0.00195
   195)     2.63750000E-01  2.62500000E-02  4.13750000E-01       0.00195
   196)     3.88750000E-01  2.62500000E-02  4.13750000E-01       0.00195
   197)    -4.86250000E-01  2.62500000E-02  4.13750000E-01       0.00195
   198)    -3.61250000E-01  2.62500000E-02  4.13750000E-01       0.00195
   199)    -2.36250000E-01  2.62500000E-02  4.13750000E-01       0.00195
   200)    -1.11250000E-01  2.62500000E-02  4.13750000E-01       0.00195
   201)     1.37500000E-02  1.51250000E-01  4.13750000E-01       0.00195
   202)     1.38750000E-01  1.51250000E-01  4.13750000E-01       0.00195
   203)     2.63750000E-01  1.51250000E-01  4.13750000E-01       0.00195
   204)     3.88750000E-01  1.51250000E-01  4.13750000E-01       0.00195
   205)    -4.86250000E-01  1.51250000E-01  4.13750000E-01       0.00195
   206)    -3.61250000E-01  1.51250000E-01  4.13750000E-01       0.00195
   207)    -2.36250000E-01  1.51250000E-01  4.13750000E-01       0.00195
   208)    -1.11250000E-01  1.51250000E-01  4.13750000E-01       0.00195
   209)     1.37500000E-02  2.76250000E-01  4.13750000E-01       0.00195
   210)     1.38750000E-01  2.76250000E-01  4.13750000E-01       0.00195
   211)     2.63750000E-01  2.76250000E-01  4.13750000E-01       0.00195
   212)     3.88750000E-01  2.76250000E-01  4.13750000E-01       0.00195
   213)    -4.86250000E-01  2.76250000E-01  4.13750000E-01       0.00195
   214)    -3.61250000E-01  2.76250000E-01  4.13750000E-01       0.00195
   215)    -2.36250000E-01  2.76250000E-01  4.13750000E-01       0.00195
   216)    -1.11250000E-01  2.76250000E-01  4.13750000E-01       0.00195
   217)     1.37500000E-02  4.01250000E-01  4.13750000E-01       0.00195
   218)     1.38750000E-01  4.01250000E-01  4.13750000E-01       0.00195
   219)     2.63750000E-01  4.01250000E-01  4.13750000E-01       0.00195
   220)     3.88750000E-01  4.01250000E-01  4.13750000E-01       0.00195
   221)    -4.86250000E-01  4.01250000E-01  4.13750000E-01       0.00195
   222)    -3.61250000E-01  4.01250000E-01  4.13750000E-01       0.00195
   223)    -2.36250000E-01  4.01250000E-01  4.13750000E-01       0.00195
   224)    -1.11250000E-01  4.01250000E-01  4.13750000E-01       0.00195
   225)     1.37500000E-02 -4.73750000E-01  4.13750000E-01       0.00195
   226)     1.38750000E-01 -4.73750000E-01  4.13750000E-01       0.00195
   227)     2.63750000E-01 -4.73750000E-01  4.13750000E-01       0.00195
   228)     3.88750000E-01 -4.73750000E-01  4.13750000E-01       0.00195
   229)    -4.86250000E-01 -4.73750000E-01  4.13750000E-01       0.00195
   230)    -3.61250000E-01 -4.73750000E-01  4.13750000E-01       0.00195
   231)    -2.36250000E-01 -4.73750000E-01  4.13750000E-01       0.00195
   232)    -1.11250000E-01 -4.73750000E-01  4.13750000E-01       0.00195
   233)     1.37500000E-02 -3.48750000E-01  4.13750000E-01       0.00195
   234)     1.38750000E-01 -3.48750000E-01  4.13750000E-01       0.00195
   235)     2.63750000E-01 -3.48750000E-01  4.13750000E-01       0.00195
   236)     3.88750000E-01 -3.48750000E-01  4.13750000E-01       0.00195
   237)    -4.86250000E-01 -3.48750000E-01  4.13750000E-01       0.00195
   238)    -3.61250000E-01 -3.48750000E-01  4.13750000E-01       0.00195
   239)    -2.36250000E-01 -3.48750000E-01  4.13750000E-01       0.00195
   240)    -1.11250000E-01 -3.48750000E-01  4.13750000E-01       0.00195
   241)     1.37500000E-02 -2.23750000E-01  4.13750000E-01       0.00195
   242)     1.38750000E-01 -2.23750000E-01  4.13750000E-01       0.00195
   243)     2.63750000E-01 -2.23750000E-01  4.13750000E-01       0.00195
   244)     3.88750000E-01 -2.23750000E-01  4.13750000E-01       0.00195
   245)    -4.86250000E-01 -2.23750000E-01  4.13750000E-01       0.00195
   246)    -3.61250000E-01 -2.23750000E-01  4.13750000E-01       0.00195
   247)    -2.36250000E-01 -2.23750000E-01  4.13750000E-01       0.00195
   248)    -1.11250000E-01 -2.23750000E-01  4.13750000E-01       0.00195
   249)     1.37500000E-02 -9.87500000E-02  4.13750000E-01       0.00195
   250)     1.38750000E-01 -9.87500000E-02  4.13750000E-01       0.00195
   251)     2.63750000E-01 -9.87500000E-02  4.13750000E-01       0.00195
   252)     3.88750000E-01 -9.87500000E-02  4.13750000E-01       0.00195
   253)    -4.86250000E-01 -9.87500000E-02  4.13750000E-01       0.00195
   254)    -3.61250000E-01 -9.87500000E-02  4.13750000E-01       0.00195
   255)    -2.36250000E-01 -9.87500000E-02  4.13750000E-01       0.00195
   256)    -1.11250000E-01 -9.87500000E-02  4.13750000E-01       0.00195
   257)     1.37500000E-02  2.62500000E-02 -4.61250000E-01       0.00195
   258)     1.38750000E-01  2.62500000E-02 -4.61250000E-01       0.00195
   259)     2.63750000E-01  2.62500000E-02 -4.61250000E-01       0.00195
   260)     3.88750000E-01  2.62500000E-02 -4.61250000E-01       0.00195
   261)    -4.86250000E-01  2.62500000E-02 -4.61250000E-01       0.00195
   262)    -3.61250000E-01  2.62500000E-02 -4.61250000E-01       0.00195
   263)    -2.36250000E-01  2.62500000E-02 -4.61250000E-01       0.00195
   264)    -1.11250000E-01  2.62500000E-02 -4.61250000E-01       0.00195
   265)     1.37500000E-02  1.51250000E-01 -4.61250000E-01       0.00195
   266)     1.38750000E-01  1.51250000E-01 -4.61250000E-01       0.00195
   267)     2.63750000E-01  1.51250000E-01 -4.61250000E-01       0.00195
   268)     3.88750000E-01  1.51250000E-01 -4.61250000E-01       0.00195
   269)    -4.86250000E-01  1.51250000E-01 -4.61250000E-01       0.00195
   270)    -3.61250000E-01  1.51250000E-01 -4.61250000E-01       0.00195
   271)    -2.36250000E-01  1.51250000E-01 -4.61250000E-01       0.00195
   272)    -1.11250000E-01  1.51250000E-01 -4.61250000E-01       0.00195
   273)     1.37500000E-02  2.76250000E-01 -4.61250000E-01       0.00195
   274)     1.38750000E-01  2.76250000E-01 -4.61250000E-01       0.00195
   275)     2.63750000E-01  2.76250000E-01 -4.61250000E-01       0.00195
   276)     3.88750000E-01  2.76250000E-01 -4.61250000E-01       0.00195
   277)    -4.86250000E-01  2.76250000E-01 -4.61250000E-01       0.00195
   278)    -3.61250000E-01  2.76250000E-01 -4.61250000E-01       0.00195
   279)    -2.36250000E-01  2.76250000E-01 -4.61250000E-01       0.00195
   280)    -1.11250000E-01  2.76250000E-01 -4.61250000E-01       0.00195
   281)     1.37500000E-02  4.01250000E-01 -4.61250000E-01       0.00195
   282)     1.38750000E-01  4.01250000E-01 -4.61250000E-01       0.00195
   283)     2.63750000E-01  4.01250000E-01 -4.61250000E-01       0.00195
   284)     3.88750000E-01  4.01250000E-01 -4.61250000E-01       0.00195
   285)    -4.86250000E-01  4.01250000E-01 -4.61250000E-01       0.00195
   286)    -3.61250000E-01  4.01250000E-01 -4.61250000E-01       0.00195
   287)    -2.36250000E-01  4.01250000E-01 -4.61250000E-01       0.00195
   288)    -1.11250000E-01  4.01250000E-01 -4.61250000E-01       0.00195
   289)     1.37500000E-02 -4.73750000E-01 -4.61250000E-01       0.00195
   290)     1.38750000E-01 -4.73750000E-01 -4.61250000E-01       0.00195
   291)     2.63750000E-01 -4.73750000E-01 -4.61250000E-01       0.00195
   292)     3.88750000E-01 -4.73750000E-01 -4.61250000E-01       0.00195
   293)    -4.86250000E-01 -4.73750000E-01 -4.61250000E-01       0.00195
   294)    -3.61250000E-01 -4.73750000E-01 -4.61250000E-01       0.00195
   295)    -2.36250000E-01 -4.73750000E-01 -4.61250000E-01       0.00195
   296)    -1.11250000E-01 -4.73750000E-01 -4.61250000E-01       0.00195
   297)     1.37500000E-02 -3.48750000E-01 -4.61250000E-01       0.00195
   298)     1.38750000E-01 -3.48750000E-01 -4.61250000E-01       0.00195
   299)     2.63750000E-01 -3.48750000E-01 -4.61250000E-01       0.00195
   300)     3.88750000E-01 -3.48750000E-01 -4.61250000E-01       0.00195
   301)    -4.86250000E-01 -3.48750000E-01 -4.61250000E-01       0.00195
   302)    -3.61250000E-01 -3.48750000E-01 -4.61250000E-01       0.00195
   303)    -2.36250000E-01 -3.48750000E-01 -4.61250000E-01       0.00195
   304)    -1.11250000E-01 -3.48750000E-01 -4.61250000E-01       0.00195
   305)     1.37500000E-02 -2.23750000E-01 -4.61250000E-01       0.00195
   306)     1.38750000E-01 -2.23750000E-01 -4.61250000E-01       0.00195
   307)     2.63750000E-01 -2.23750000E-01 -4.61250000E-01       0.00195
   308)     3.88750000E-01 -2.23750000E-01 -4.61250000E-01       0.00195
   309)    -4.86250000E-01 -2.23750000E-01 -4.61250000E-01       0.00195
   310)    -3.61250000E-01 -2.23750000E-01 -4.61250000E-01       0.00195
   311)    -2.36250000E-01 -2.23750000E-01 -4.61250000E-01       0.00195
   312)    -1.11250000E-01 -2.23750000E-01 -4.61250000E-01       0.00195
   313)     1.37500000E-02 -9.87500000E-02 -4.61250000E-01       0.00195
   314)     1.38750000E-01 -9.87500000E-02 -4.61250000E-01       0.00195
   315)     2.63750000E-01 -9.87500000E-02 -4.61250000E-01       0.00195
   316)     3.88750000E-01 -9.87500000E-02 -4.61250000E-01       0.00195
   317)    -4.86250000E-01 -9.87500000E-02 -4.61250000E-01       0.00195
   318)    -3.61250000E-01 -9.87500000E-02 -4.61250000E-01       0.00195
   319)    -2.36250000E-01 -9.87500000E-02 -4.61250000E-01       0.00195
   320)    -1.11250000E-01 -9.87500000E-02 -4.61250000E-01       0.00195
   321)     1.37500000E-02  2.62500000E-02 -3.36250000E-01       0.00195
   322)     1.38750000E-01  2.62500000E-02 -3.36250000E-01       0.00195
   323)     2.63750000E-01  2.62500000E-02 -3.36250000E-01       0.00195
   324)     3.88750000E-01  2.62500000E-02 -3.36250000E-01       0.00195
   325)    -4.86250000E-01  2.62500000E-02 -3.36250000E-01       0.00195
   326)    -3.61250000E-01  2.62500000E-02 -3.36250000E-01       0.00195
   327)    -2.36250000E-01  2.62500000E-02 -3.36250000E-01       0.00195
   328)    -1.11250000E-01  2.62500000E-02 -3.36250000E-01       0.00195
   329)     1.37500000E-02  1.51250000E-01 -3.36250000E-01       0.00195
   330)     1.38750000E-01  1.51250000E-01 -3.36250000E-01       0.00195
   331)     2.63750000E-01  1.51250000E-01 -3.36250000E-01       0.00195
   332)     3.88750000E-01  1.51250000E-01 -3.36250000E-01       0.00195
   333)    -4.86250000E-01  1.51250000E-01 -3.36250000E-01       0.00195
   334)    -3.61250000E-01  1.51250000E-01 -3.36250000E-01       0.00195
   335)    -2.36250000E-01  1.51250000E-01 -3.36250000E-01       0.00195
   336)    -1.11250000E-01  1.51250000E-01 -3.36250000E-01       0.00195
   337)     1.37500000E-02  2.76250000E-01 -3.36250000E-01       0.00195
   338)     1.38750000E-01  2.76250000E-01 -3.36250000E-01       0.00195
   339)     2.63750000E-01  2.76250000E-01 -3.36250000E-01       0.00195
   340)     3.88750000E-01  2.76250000E-01 -3.36250000E-01       0.00195
   341)    -4.86250000E-01  2.76250000E-01 -3.36250000E-01       0.00195
   342)    -3.61250000E-01  2.76250000E-01 -3.36250000E-01       0.00195
   343)    -2.36250000E-01  2.76250000E-01 -3.36250000E-01       0.00195
   344)    -1.11250000E-01  2.76250000E-01 -3.36250000E-01       0.00195
   345)     1.37500000E-02  4.01250000E-01 -3.36250000E-01       0.00195
   346)     1.38750000E-01  4.01250000E-01 -3.36250000E-01       0.00195
   347)     2.63750000E-01  4.01250000E-01 -3.36250000E-01       0.00195
   348)     3.88750000E-01  4.01250000E-01 -3.36250000E-01       0.00195
   349)    -4.86250000E-01  4.01250000E-01 -3.36250000E-01       0.00195
   350)    -3.61250000E-01  4.01250000E-01 -3.36250000E-01       0.00195
   351)    -2.36250000E-01  4.01250000E-01 -3.36250000E-01       0.00195
   352)    -1.11250000E-01  4.01250000E-01 -3.36250000E-01       0.00195
   353)     1.37500000E-02 -4.73750000E-01 -3.36250000E-01       0.00195
   354)     1.38750000E-01 -4.73750000E-01 -3.36250000E-01       0.00195
   355)     2.63750000E-01 -4.73750000E-01 -3.36250000E-01       0.00195
   356)     3.88750000E-01 -4.73750000E-01 -3.36250000E-01       0.00195
   357)    -4.86250000E-01 -4.73750000E-01 -3.36250000E-01       0.00195
   358)    -3.61250000E-01 -4.73750000E-01 -3.36250000E-01       0.00195
   359)    -2.36250000E-01 -4.73750000E-01 -3.36250000E-01       0.00195
   360)    -1.11250000E-01 -4.73750000E-01 -3.36250000E-01       0.00195
   361)     1.37500000E-02 -3.48750000E-01 -3.36250000E-01       0.00195
   362)     1.38750000E-01 -3.48750000E-01 -3.36250000E-01       0.00195
   363)     2.63750000E-01 -3.48750000E-01 -3.36250000E-01       0.00195
   364)     3.88750000E-01 -3.48750000E-01 -3.36250000E-01       0.00195
   365)    -4.86250000E-01 -3.48750000E-01 -3.36250000E-01       0.00195
   366)    -3.61250000E-01 -3.48750000E-01 -3.36250000E-01       0.00195
   367)    -2.36250000E-01 -3.48750000E-01 -3.36250000E-01       0.00195
   368)    -1.11250000E-01 -3.48750000E-01 -3.36250000E-01       0.00195
   369)     1.37500000E-02 -2.23750000E-01 -3.36250000E-01       0.00195
   370)     1.38750000E-01 -2.23750000E-01 -3.36250000E-01       0.00195
   371)     2.63750000E-01 -2.23750000E-01 -3.36250000E-01       0.00195
   372)     3.88750000E-01 -2.23750000E-01 -3.36250000E-01       0.00195
   373)    -4.86250000E-01 -2.23750000E-01 -3.36250000E-01       0.00195
   374)    -3.61250000E-01 -2.23750000E-01 -3.36250000E-01       0.00195
   375)    -2.36250000E-01 -2.23750000E-01 -3.36250000E-01       0.00195
   376)    -1.11250000E-01 -2.23750000E-01 -3.36250000E-01       0.00195
   377)     1.37500000E-02 -9.87500000E-02 -3.36250000E-01       0.00195
   378)     1.38750000E-01 -9.87500000E-02 -3.36250000E-01       0.00195
   379)     2.63750000E-01 -9.87500000E-02 -3.36250000E-01       0.00195
   380)     3.88750000E-01 -9.87500000E-02 -3.36250000E-01       0.00195
   381)    -4.86250000E-01 -9.87500000E-02 -3.36250000E-01       0.00195
   382)    -3.61250000E-01 -9.87500000E-02 -3.36250000E-01       0.00195
   383)    -2.36250000E-01 -9.87500000E-02 -3.36250000E-01       0.00195
   384)    -1.11250000E-01 -9.87500000E-02 -3.36250000E-01       0.00195
   385)     1.37500000E-02  2.62500000E-02 -2.11250000E-01       0.00195
   386)     1.38750000E-01  2.62500000E-02 -2.11250000E-01       0.00195
   387)     2.63750000E-01  2.62500000E-02 -2.11250000E-01       0.00195
   388)     3.88750000E-01  2.62500000E-02 -2.11250000E-01       0.00195
   389)    -4.86250000E-01  2.62500000E-02 -2.11250000E-01       0.00195
   390)    -3.61250000E-01  2.62500000E-02 -2.11250000E-01       0.00195
   391)    -2.36250000E-01  2.62500000E-02 -2.11250000E-01       0.00195
   392)    -1.11250000E-01  2.62500000E-02 -2.11250000E-01       0.00195
   393)     1.37500000E-02  1.51250000E-01 -2.11250000E-01       0.00195
   394)     1.38750000E-01  1.51250000E-01 -2.11250000E-01       0.00195
   395)     2.63750000E-01  1.51250000E-01 -2.11250000E-01       0.00195
   396)     3.88750000E-01  1.51250000E-01 -2.11250000E-01       0.00195
   397)    -4.86250000E-01  1.51250000E-01 -2.11250000E-01       0.00195
   398)    -3.61250000E-01  1.51250000E-01 -2.11250000E-01       0.00195
   399)    -2.36250000E-01  1.51250000E-01 -2.11250000E-01       0.00195
   400)    -1.11250000E-01  1.51250000E-01 -2.11250000E-01       0.00195
   401)     1.37500000E-02  2.76250000E-01 -2.11250000E-01       0.00195
   402)     1.38750000E-01  2.76250000E-01 -2.11250000E-01       0.00195
   403)     2.63750000E-01  2.76250000E-01 -2.11250000E-01       0.00195
   404)     3.88750000E-01  2.76250000E-01 -2.11250000E-01       0.00195
   405)    -4.86250000E-01  2.76250000E-01 -2.11250000E-01       0.00195
   406)    -3.61250000E-01  2.76250000E-01 -2.11250000E-01       0.00195
   407)    -2.36250000E-01  2.76250000E-01 -2.11250000E-01       0.00195
   408)    -1.11250000E-01  2.76250000E-01 -2.11250000E-01       0.00195
   409)     1.37500000E-02  4.01250000E-01 -2.11250000E-01       0.00195
   410)     1.38750000E-01  4.01250000E-01 -2.11250000E-01       0.00195
   411)     2.63750000E-01  4.01250000E-01 -2.11250000E-01       0.00195
   412)     3.88750000E-01  4.01250000E-01 -2.11250000E-01       0.00195
   413)    -4.86250000E-01  4.01250000E-01 -2.11250000E-01       0.00195
   414)    -3.61250000E-01  4.01250000E-01 -2.11250000E-01       0.00195
   415)    -2.36250000E-01  4.01250000E-01 -2.11250000E-01       0.00195
   416)    -1.11250000E-01  4.01250000E-01 -2.11250000E-01       0.00195
   417)     1.37500000E-02 -4.73750000E-01 -2.11250000E-01       0.00195
   418)     1.38750000E-01 -4.73750000E-01 -2.11250000E-01       0.00195
   419)     2.63750000E-01 -4.73750000E-01 -2.11250000E-01       0.00195
   420)     3.88750000E-01 -4.73750000E-01 -2.11250000E-01       0.00195
   421)    -4.86250000E-01 -4.73750000E-01 -2.11250000E-01       0.00195
   422)    -3.61250000E-01 -4.73750000E-01 -2.11250000E-01       0.00195
   423)    -2.36250000E-01 -4.73750000E-01 -2.11250000E-01       0.00195
   424)    -1.11250000E-01 -4.73750000E-01 -2.11250000E-01       0.00195
   425)     1.37500000E-02 -3.48750000E-01 -2.11250000E-01       0.00195
   426)     1.38750000E-01 -3.48750000E-01 -2.11250000E-01       0.00195
   427)     2.63750000E-01 -3.48750000E-01 -2.11250000E-01       0.00195
   428)     3.88750000E-01 -3.48750000E-01 -2.11250000E-01       0.00195
   429)    -4.86250000E-01 -3.48750000E-01 -2.11250000E-01       0.00195
   430)    -3.61250000E-01 -3.48750000E-01 -2.11250000E-01       0.00195
   431)    -2.36250000E-01 -3.48750000E-01 -2.11250000E-01       0.00195
   432)    -1.11250000E-01 -3.48750000E-01 -2.11250000E-01       0.00195
   433)     1.37500000E-02 -2.23750000E-01 -2.11250000E-01       0.00195
   434)     1.38750000E-01 -2.23750000E-01 -2.11250000E-01       0.00195
   435)     2.63750000E-01 -2.23750000E-01 -2.11250000E-01       0.00195
   436)     3.88750000E-01 -2.23750000E-01 -2.11250000E-01       0.00195
   437)    -4.86250000E-01 -2.23750000E-01 -2.11250000E-01       0.00195
   438)    -3.61250000E-01 -2.23750000E-01 -2.11250000E-01       0.00195
   439)    -2.36250000E-01 -2.23750000E-01 -2.11250000E-01       0.00195
   440)    -1.11250000E-01 -2.23750000E-01 -2.11250000E-01       0.00195
   441)     1.37500000E-02 -9.87500000E-02 -2.11250000E-01       0.00195
   442)     1.38750000E-01 -9.87500000E-02 -2.11250000E-01       0.00195
   443)     2.63750000E-01 -9.87500000E-02 -2.11250000E-01       0.00195
   444)     3.88750000E-01 -9.87500000E-02 -2.11250000E-01       0.00195
   445)    -4.86250000E-01 -9.87500000E-02 -2.11250000E-01       0.00195
   446)    -3.61250000E-01 -9.87500000E-02 -2.11250000E-01       0.00195
   447)    -2.36250000E-01 -9.87500000E-02 -2.11250000E-01       0.00195
   448)    -1.11250000E-01 -9.87500000E-02 -2.11250000E-01       0.00195
   449)     1.37500000E-02  2.62500000E-02 -8.62500000E-02       0.00195
   450)     1.38750000E-01  2.62500000E-02 -8.62500000E-02       0.00195
   451)     2.63750000E-01  2.62500000E-02 -8.62500000E-02       0.00195
   452)     3.88750000E-01  2.62500000E-02 -8.62500000E-02       0.00195
   453)    -4.86250000E-01  2.62500000E-02 -8.62500000E-02       0.00195
   454)    -3.61250000E-01  2.62500000E-02 -8.62500000E-02       0.00195
   455)    -2.36250000E-01  2.62500000E-02 -8.62500000E-02       0.00195
   456)    -1.11250000E-01  2.62500000E-02 -8.62500000E-02       0.00195
   457)     1.37500000E-02  1.51250000E-01 -8.62500000E-02       0.00195
   458)     1.38750000E-01  1.51250000E-01 -8.62500000E-02       0.00195
   459)     2.63750000E-01  1.51250000E-01 -8.62500000E-02       0.00195
   460)     3.88750000E-01  1.51250000E-01 -8.62500000E-02       0.00195
   461)    -4.86250000E-01  1.51250000E-01 -8.62500000E-02       0.00195
   462)    -3.61250000E-01  1.51250000E-01 -8.62500000E-02       0.00195
   463)    -2.36250000E-01  1.51250000E-01 -8.62500000E-02       0.00195
   464)    -1.11250000E-01  1.51250000E-01 -8.62500000E-02       0.00195
   465)     1.37500000E-02  2.76250000E-01 -8.62500000E-02       0.00195
   466)     1.38750000E-01  2.76250000E-01 -8.62500000E-02       0.00195
   467)     2.63750000E-01  2.76250000E-01 -8.62500000E-02       0.00195
   468)     3.88750000E-01  2.76250000E-01 -8.62500000E-02       0.00195
   469)    -4.86250000E-01  2.76250000E-01 -8.62500000E-02       0.00195
   470)    -3.61250000E-01  2.76250000E-01 -8.62500000E-02       0.00195
   471)    -2.36250000E-01  2.76250000E-01 -8.62500000E-02       0.00195
   472)    -1.11250000E-01  2.76250000E-01 -8.62500000E-02       0.00195
   473)     1.37500000E-02  4.01250000E-01 -8.62500000E-02       0.00195
   474)     1.38750000E-01  4.01250000E-01 -8.62500000E-02       0.00195
   475)     2.63750000E-01  4.01250000E-01 -8.62500000E-02       0.00195
   476)     3.88750000E-01  4.01250000E-01 -8.62500000E-02       0.00195
   477)    -4.86250000E-01  4.01250000E-01 -8.62500000E-02       0.00195
   478)    -3.61250000E-01  4.01250000E-01 -8.62500000E-02       0.00195
   479)    -2.36250000E-01  4.01250000E-01 -8.62500000E-02       0.00195
   480)    -1.11250000E-01  4.01250000E-01 -8.62500000E-02       0.00195
   481)     1.37500000E-02 -4.73750000E-01 -8.62500000E-02       0.00195
   482)     1.38750000E-01 -4.73750000E-01 -8.62500000E-02       0.00195
   483)     2.63750000E-01 -4.73750000E-01 -8.62500000E-02       0.00195
   484)     3.88750000E-01 -4.73750000E-01 -8.62500000E-02       0.00195
   485)    -4.86250000E-01 -4.73750000E-01 -8.62500000E-02       0.00195
   486)    -3.61250000E-01 -4.73750000E-01 -8.62500000E-02       0.00195
   487)    -2.36250000E-01 -4.73750000E-01 -8.62500000E-02       0.00195
   488)    -1.11250000E-01 -4.73750000E-01 -8.62500000E-02       0.00195
   489)     1.37500000E-02 -3.48750000E-01 -8.62500000E-02       0.00195
   490)     1.38750000E-01 -3.48750000E-01 -8.62500000E-02       0.00195
   491)     2.63750000E-01 -3.48750000E-01 -8.62500000E-02       0.00195
   492)     3.88750000E-01 -3.48750000E-01 -8.62500000E-02       0.00195
   493)    -4.86250000E-01 -3.48750000E-01 -8.62500000E-02       0.00195
   494)    -3.61250000E-01 -3.48750000E-01 -8.62500000E-02       0.00195
   495)    -2.36250000E-01 -3.48750000E-01 -8.62500000E-02       0.00195
   496)    -1.11250000E-01 -3.48750000E-01 -8.62500000E-02       0.00195
   497)     1.37500000E-02 -2.23750000E-01 -8.62500000E-02       0.00195
   498)     1.38750000E-01 -2.23750000E-01 -8.62500000E-02       0.00195
   499)     2.63750000E-01 -2.23750000E-01 -8.62500000E-02       0.00195
   500)     3.88750000E-01 -2.23750000E-01 -8.62500000E-02       0.00195
   501)    -4.86250000E-01 -2.23750000E-01 -8.62500000E-02       0.00195
   502)    -3.61250000E-01 -2.23750000E-01 -8.62500000E-02       0.00195
   503)    -2.36250000E-01 -2.23750000E-01 -8.62500000E-02       0.00195
   504)    -1.11250000E-01 -2.23750000E-01 -8.62500000E-02       0.00195
   505)     1.37500000E-02 -9.87500000E-02 -8.62500000E-02       0.00195
   506)     1.38750000E-01 -9.87500000E-02 -8.62500000E-02       0.00195
   507)     2.63750000E-01 -9.87500000E-02 -8.62500000E-02       0.00195
   508)     3.88750000E-01 -9.87500000E-02 -8.62500000E-02       0.00195
   509)    -4.86250000E-01 -9.87500000E-02 -8.62500000E-02       0.00195
   510)    -3.61250000E-01 -9.87500000E-02 -8.62500000E-02       0.00195
   511)    -2.36250000E-01 -9.87500000E-02 -8.62500000E-02       0.00195
   512)    -1.11250000E-01 -9.87500000E-02 -8.62500000E-02       0.00195

 Together with 48 symmetry operations and time-reversal symmetry 
 yields   512 points in the full Brillouin Zone.


 ==== Q-mesh for the screening function ====
 Number of points in the irreducible wedge :    29
 Reduced coordinates and weights : 

     1)     0.00000000E+00  0.00000000E+00  0.00000000E+00       0.00195
     2)     1.25000000E-01  0.00000000E+00  0.00000000E+00       0.01563
     3)     2.50000000E-01  0.00000000E+00  0.00000000E+00       0.01563
     4)     3.75000000E-01  0.00000000E+00  0.00000000E+00       0.01563
     5)     5.00000000E-01  0.00000000E+00  0.00000000E+00       0.00781
     6)     1.25000000E-01  1.25000000E-01  0.00000000E+00       0.01172
     7)     2.50000000E-01  1.25000000E-01  0.00000000E+00       0.04688
     8)     3.75000000E-01  1.25000000E-01  0.00000000E+00       0.04688
     9)     5.00000000E-01  1.25000000E-01  0.00000000E+00       0.04688
    10)    -3.75000000E-01  1.25000000E-01  0.00000000E+00       0.04688
    11)    -2.50000000E-01  1.25000000E-01  0.00000000E+00       0.04688
    12)    -1.25000000E-01  1.25000000E-01  0.00000000E+00       0.02344
    13)     2.50000000E-01  2.50000000E-01  0.00000000E+00       0.01172
    14)     3.75000000E-01  2.50000000E-01  0.00000000E+00       0.04688
    15)     5.00000000E-01  2.50000000E-01  0.00000000E+00       0.04688
    16)    -3.75000000E-01  2.50000000E-01  0.00000000E+00       0.04688
    17)    -2.50000000E-01  2.50000000E-01  0.00000000E+00       0.02344
    18)     3.75000000E-01  3.75000000E-01  0.00000000E+00       0.01172
    19)     5.00000000E-01  3.75000000E-01  0.00000000E+00       0.04688
    20)    -3.75000000E-01  3.75000000E-01  0.00000000E+00       0.02344
    21)     5.00000000E-01  5.00000000E-01  0.00000000E+00       0.00586
    22)     3.75000000E-01  2.50000000E-01  1.25000000E-01       0.04688
    23)     5.00000000E-01  2.50000000E-01  1.25000000E-01       0.09375
    24)    -3.75000000E-01  2.50000000E-01  1.25000000E-01       0.04688
    25)     5.00000000E-01  3.75000000E-01  1.25000000E-01       0.04688
    26)    -3.75000000E-01  3.75000000E-01  1.25000000E-01       0.09375
    27)    -2.50000000E-01  3.75000000E-01  1.25000000E-01       0.04688
    28)    -3.75000000E-01  5.00000000E-01  1.25000000E-01       0.02344
    29)    -2.50000000E-01  5.00000000E-01  2.50000000E-01       0.01172

 Together with 48 symmetry operations and time-reversal symmetry 
 yields   512 points in the full Brillouin Zone.


 setmesh: FFT mesh size selected  =  12x 12x 12
          total number of points  =     1728

 ==== Fundamental parameters for the solution of the Bethe-Salpeter equation: ====
 Algorithm: Haydock technique.
 Dimension of the v, W matrices,  npweps  = 59
 Cutoff for the wavefunctions,    npwwfn  = 137
 Number of k-points in the IBZ,   nkibz   = 512
 Highest empty band included,     nband   = 6
 === Spin UP ===
 Number of resonant transitions          3072
 Lowest occupied state                   2
 Highest occupied state                  4
 Lowest unoccupied state                 5
 Highest unoccupied state                6
 Minimum frequency [eV]           Emin    =   0.00
 Maximum frequency [eV]           Emax    =   6.00
 Frequency step [eV]              dE      =   0.02
 Lorentzian broadening [eV]       eta     =   0.15
 RPA L0 with KS energies and KS wavefunctions
 Scissors operator energy [eV] =          0.80
 Local fields effects (v term) included
 Excitonic effects (W term) included
 Full W_GG' included
 W is approximated with the model dielectric function
 Resonant-only calculation (Hermitian case)


 Calculating epsilon_Macro(q-->0,w), along the following directions:
 q = (  0.938821  0.000000  0.000000) [r.l.u.]
 q = (  0.000000  0.938821  0.000000) [r.l.u.]
 q = (  0.000000  0.000000  0.938821) [r.l.u.]
 q = (  0.000000  0.813043  0.813043) [r.l.u.]
 q = (  0.813043  0.000000  0.813043) [r.l.u.]
 q = (  0.813043  0.813043  0.000000) [r.l.u.]
 Number of electrons calculated from density =    7.9981; Expected =    8.0000
 average of density, n =  0.029997
 r_s =    1.9965
 omega_plasma =   16.7069 [eV]

. Writing resonant excitonic Hamiltonian on file /Users/gmatteo/git_repos/abitutorials/abitutorials/bse/flow_bse_kconv/w2/t2/outdata/out_BSR; file size=   0.07 [Gb].
 Writing KS-RPA macroscopic dielectric function without local fields to file: /Users/gmatteo/git_repos/abitutorials/abitutorials/bse/flow_bse_kconv/w2/t2/outdata/out_RPA_NLF_MDF
 Writing GW-RPA macroscopic dielectric function without local fields to file: /Users/gmatteo/git_repos/abitutorials/abitutorials/bse/flow_bse_kconv/w2/t2/outdata/out_GW_NLF_MDF
 >>> Haydock algorithm converged twice within haydock_tol=   2.00E-02 after 74 iterations.
 >>> Haydock algorithm converged twice within haydock_tol=   2.00E-02 after 71 iterations.
 >>> Haydock algorithm converged twice within haydock_tol=   2.00E-02 after 72 iterations.
 >>> Haydock algorithm converged twice within haydock_tol=   2.00E-02 after 71 iterations.
 >>> Haydock algorithm converged twice within haydock_tol=   2.00E-02 after 72 iterations.
 >>> Haydock algorithm converged twice within haydock_tol=   2.00E-02 after 74 iterations.
 Writing EXC Macroscopic dielectric function to file: /Users/gmatteo/git_repos/abitutorials/abitutorials/bse/flow_bse_kconv/w2/t2/outdata/out_EXC_MDF
  
 Macroscopic dielectric function:
 omega [eV] <KS_RPA_nlf>  <GW_RPA_nlf>  <BSE> 
   0.0000  12.9876   0.0000  10.8460   0.0000  11.7457   0.0000
   0.0200  12.9880   0.0056  10.8462   0.0030  11.7460   0.0039
   0.0400  12.9891   0.0113  10.8468   0.0060  11.7468   0.0078
   0.0600  12.9909   0.0169  10.8478   0.0090  11.7481   0.0118
   0.0800  12.9935   0.0226  10.8492   0.0120  11.7499   0.0157
   0.1000  12.9969   0.0282  10.8510   0.0150  11.7522   0.0196
   0.1200  13.0010   0.0339  10.8532   0.0181  11.7551   0.0236
   0.1400  13.0059   0.0396  10.8558   0.0211  11.7585   0.0275
   0.1600  13.0115   0.0453  10.8588   0.0241  11.7624   0.0315
   0.1800  13.0178   0.0510  10.8622   0.0272  11.7668   0.0354
  

== END DATASET(S) ==============================================================
================================================================================
  
 -outvars: echo values of variables after computation  --------
            acell      1.0000000000E+00  1.0000000000E+00  1.0000000000E+00 Bohr
              amu      2.80855000E+01
  bs_coulomb_term          21
     bs_freq_mesh      0.00000000E+00  2.20495952E-01  7.34986508E-04 Hartree
        bs_loband           2
      chksymbreak           0
           diemac      1.20000000E+01
             ecut      5.10559920E+00 Hartree
          ecuteps      2.26915520E+00 Hartree
          ecutwfn      5.10559920E+00 Hartree
           etotal      0.0000000000E+00
            fcart      0.0000000000E+00  0.0000000000E+00  0.0000000000E+00
                       0.0000000000E+00  0.0000000000E+00  0.0000000000E+00
-          fftalg         112
           irdwfk           1
              kpt      1.37500000E-02  2.62500000E-02  3.87500000E-02
                       1.38750000E-01  2.62500000E-02  3.87500000E-02
                       2.63750000E-01  2.62500000E-02  3.87500000E-02
                       3.88750000E-01  2.62500000E-02  3.87500000E-02
                      -4.86250000E-01  2.62500000E-02  3.87500000E-02
                      -3.61250000E-01  2.62500000E-02  3.87500000E-02
                      -2.36250000E-01  2.62500000E-02  3.87500000E-02
                      -1.11250000E-01  2.62500000E-02  3.87500000E-02
                       1.37500000E-02  1.51250000E-01  3.87500000E-02
                       1.38750000E-01  1.51250000E-01  3.87500000E-02
                       2.63750000E-01  1.51250000E-01  3.87500000E-02
                       3.88750000E-01  1.51250000E-01  3.87500000E-02
                      -4.86250000E-01  1.51250000E-01  3.87500000E-02
                      -3.61250000E-01  1.51250000E-01  3.87500000E-02
                      -2.36250000E-01  1.51250000E-01  3.87500000E-02
                      -1.11250000E-01  1.51250000E-01  3.87500000E-02
                       1.37500000E-02  2.76250000E-01  3.87500000E-02
                       1.38750000E-01  2.76250000E-01  3.87500000E-02
                       2.63750000E-01  2.76250000E-01  3.87500000E-02
                       3.88750000E-01  2.76250000E-01  3.87500000E-02
                      -4.86250000E-01  2.76250000E-01  3.87500000E-02
                      -3.61250000E-01  2.76250000E-01  3.87500000E-02
                      -2.36250000E-01  2.76250000E-01  3.87500000E-02
                      -1.11250000E-01  2.76250000E-01  3.87500000E-02
                       1.37500000E-02  4.01250000E-01  3.87500000E-02
                       1.38750000E-01  4.01250000E-01  3.87500000E-02
                       2.63750000E-01  4.01250000E-01  3.87500000E-02
                       3.88750000E-01  4.01250000E-01  3.87500000E-02
                      -4.86250000E-01  4.01250000E-01  3.87500000E-02
                      -3.61250000E-01  4.01250000E-01  3.87500000E-02
                      -2.36250000E-01  4.01250000E-01  3.87500000E-02
                      -1.11250000E-01  4.01250000E-01  3.87500000E-02
                       1.37500000E-02 -4.73750000E-01  3.87500000E-02
                       1.38750000E-01 -4.73750000E-01  3.87500000E-02
                       2.63750000E-01 -4.73750000E-01  3.87500000E-02
                       3.88750000E-01 -4.73750000E-01  3.87500000E-02
                      -4.86250000E-01 -4.73750000E-01  3.87500000E-02
                      -3.61250000E-01 -4.73750000E-01  3.87500000E-02
                      -2.36250000E-01 -4.73750000E-01  3.87500000E-02
                      -1.11250000E-01 -4.73750000E-01  3.87500000E-02
                       1.37500000E-02 -3.48750000E-01  3.87500000E-02
                       1.38750000E-01 -3.48750000E-01  3.87500000E-02
                       2.63750000E-01 -3.48750000E-01  3.87500000E-02
                       3.88750000E-01 -3.48750000E-01  3.87500000E-02
                      -4.86250000E-01 -3.48750000E-01  3.87500000E-02
                      -3.61250000E-01 -3.48750000E-01  3.87500000E-02
                      -2.36250000E-01 -3.48750000E-01  3.87500000E-02
                      -1.11250000E-01 -3.48750000E-01  3.87500000E-02
                       1.37500000E-02 -2.23750000E-01  3.87500000E-02
                       1.38750000E-01 -2.23750000E-01  3.87500000E-02
                       outvar_i_n : Printing only first  50 k-points.
         kptrlatt        8    0    0      0    8    0      0    0    8
          kptrlen      5.77960799E+01
       mbpt_sciss      2.93994603E-02 Hartree
       mdf_epsinf      1.20000000E+01
P           mkmem         256
            natom           2
            nband           6
            ngfft          16      16      16
             nkpt         512
           npweps          59
           npwwfn         169
             nsym          48
           ntypat           1
              occ      2.000000  2.000000  2.000000  2.000000  0.000000  0.000000
        optdriver          99
            rprim      0.0000000000E+00  5.1085000000E+00  5.1085000000E+00
                       5.1085000000E+00  0.0000000000E+00  5.1085000000E+00
                       5.1085000000E+00  5.1085000000E+00  0.0000000000E+00
           shiftk      1.10000000E-01  2.10000000E-01  3.10000000E-01
          spgroup         227
           strten      0.0000000000E+00  0.0000000000E+00  0.0000000000E+00
                       0.0000000000E+00  0.0000000000E+00  0.0000000000E+00
           symrel      1  0  0   0  1  0   0  0  1      -1  0  0   0 -1  0   0  0 -1
                       0 -1  1   0 -1  0   1 -1  0       0  1 -1   0  1  0  -1  1  0
                      -1  0  0  -1  0  1  -1  1  0       1  0  0   1  0 -1   1 -1  0
                       0  1 -1   1  0 -1   0  0 -1       0 -1  1  -1  0  1   0  0  1
                      -1  0  0  -1  1  0  -1  0  1       1  0  0   1 -1  0   1  0 -1
                       0 -1  1   1 -1  0   0 -1  0       0  1 -1  -1  1  0   0  1  0
                       1  0  0   0  0  1   0  1  0      -1  0  0   0  0 -1   0 -1  0
                       0  1 -1   0  0 -1   1  0 -1       0 -1  1   0  0  1  -1  0  1
                      -1  0  1  -1  1  0  -1  0  0       1  0 -1   1 -1  0   1  0  0
                       0 -1  0   1 -1  0   0 -1  1       0  1  0  -1  1  0   0  1 -1
                       1  0 -1   0  0 -1   0  1 -1      -1  0  1   0  0  1   0 -1  1
                       0  1  0   0  0  1   1  0  0       0 -1  0   0  0 -1  -1  0  0
                       1  0 -1   0  1 -1   0  0 -1      -1  0  1   0 -1  1   0  0  1
                       0 -1  0   0 -1  1   1 -1  0       0  1  0   0  1 -1  -1  1  0
                      -1  0  1  -1  0  0  -1  1  0       1  0 -1   1  0  0   1 -1  0
                       0  1  0   1  0  0   0  0  1       0 -1  0  -1  0  0   0  0 -1
                       0  0 -1   0  1 -1   1  0 -1       0  0  1   0 -1  1  -1  0  1
                       1 -1  0   0 -1  1   0 -1  0      -1  1  0   0  1 -1   0  1  0
                       0  0  1   1  0  0   0  1  0       0  0 -1  -1  0  0   0 -1  0
                      -1  1  0  -1  0  0  -1  0  1       1 -1  0   1  0  0   1  0 -1
                       0  0  1   0  1  0   1  0  0       0  0 -1   0 -1  0  -1  0  0
                       1 -1  0   0 -1  0   0 -1  1      -1  1  0   0  1  0   0  1 -1
                       0  0 -1   1  0 -1   0  1 -1       0  0  1  -1  0  1   0 -1  1
                      -1  1  0  -1  0  1  -1  0  0       1 -1  0   1  0 -1   1  0  0
            tnons      0.0000000  0.0000000  0.0000000     0.2500000  0.2500000  0.2500000
                       0.0000000  0.0000000  0.0000000     0.2500000  0.2500000  0.2500000
                       0.0000000  0.0000000  0.0000000     0.2500000  0.2500000  0.2500000
                       0.0000000  0.0000000  0.0000000     0.2500000  0.2500000  0.2500000
                       0.0000000  0.0000000  0.0000000     0.2500000  0.2500000  0.2500000
                       0.0000000  0.0000000  0.0000000     0.2500000  0.2500000  0.2500000
                       0.0000000  0.0000000  0.0000000     0.2500000  0.2500000  0.2500000
                       0.0000000  0.0000000  0.0000000     0.2500000  0.2500000  0.2500000
                       0.0000000  0.0000000  0.0000000     0.2500000  0.2500000  0.2500000
                       0.0000000  0.0000000  0.0000000     0.2500000  0.2500000  0.2500000
                       0.0000000  0.0000000  0.0000000     0.2500000  0.2500000  0.2500000
                       0.0000000  0.0000000  0.0000000     0.2500000  0.2500000  0.2500000
                       0.0000000  0.0000000  0.0000000     0.2500000  0.2500000  0.2500000
                       0.0000000  0.0000000  0.0000000     0.2500000  0.2500000  0.2500000
                       0.0000000  0.0000000  0.0000000     0.2500000  0.2500000  0.2500000
                       0.0000000  0.0000000  0.0000000     0.2500000  0.2500000  0.2500000
                       0.0000000  0.0000000  0.0000000     0.2500000  0.2500000  0.2500000
                       0.0000000  0.0000000  0.0000000     0.2500000  0.2500000  0.2500000
                       0.0000000  0.0000000  0.0000000     0.2500000  0.2500000  0.2500000
                       0.0000000  0.0000000  0.0000000     0.2500000  0.2500000  0.2500000
                       0.0000000  0.0000000  0.0000000     0.2500000  0.2500000  0.2500000
                       0.0000000  0.0000000  0.0000000     0.2500000  0.2500000  0.2500000
                       0.0000000  0.0000000  0.0000000     0.2500000  0.2500000  0.2500000
                       0.0000000  0.0000000  0.0000000     0.2500000  0.2500000  0.2500000
            typat      1  1
              wtk        0.00195    0.00195    0.00195    0.00195    0.00195    0.00195
                         0.00195    0.00195    0.00195    0.00195    0.00195    0.00195
                         0.00195    0.00195    0.00195    0.00195    0.00195    0.00195
                         0.00195    0.00195    0.00195    0.00195    0.00195    0.00195
                         0.00195    0.00195    0.00195    0.00195    0.00195    0.00195
                         0.00195    0.00195    0.00195    0.00195    0.00195    0.00195
                         0.00195    0.00195    0.00195    0.00195    0.00195    0.00195
                         0.00195    0.00195    0.00195    0.00195    0.00195    0.00195
                         0.00195    0.00195
                       outvars : Printing only first  50 k-points.
           xangst      0.0000000000E+00  0.0000000000E+00  0.0000000000E+00
                       1.3516508850E+00  1.3516508850E+00  1.3516508850E+00
            xcart      0.0000000000E+00  0.0000000000E+00  0.0000000000E+00
                       2.5542500000E+00  2.5542500000E+00  2.5542500000E+00
             xred      0.0000000000E+00  0.0000000000E+00  0.0000000000E+00
                       2.5000000000E-01  2.5000000000E-01  2.5000000000E-01
             zcut      5.51239881E-03 Hartree
            znucl       14.00000

================================================================================


- Timing analysis has been suppressed with timopt=0



================================================================================

 Suggested references for the acknowledgment of ABINIT usage.

 The users of ABINIT have little formal obligations with respect to the ABINIT group
 (those specified in the GNU General Public License, http://www.gnu.org/copyleft/gpl.txt).
 However, it is common practice in the scientific literature,
 to acknowledge the efforts of people that have made the research possible.
 In this spirit, please find below suggested citations of work written by ABINIT developers,
 corresponding to implementations inside of ABINIT that you have used in the present run.
 Note also that it will be of great value to readers of publications presenting these results,
 to read papers enabling them to understand the theoretical formalism and details
 of the ABINIT implementation.
 For information on why they are suggested, see also http://www.abinit.org/about/?text=acknowledgments.
-
- [1] Recent developments in the ABINIT software package.
- Computer Phys. Comm. 205, 106 (2016).
- X.Gonze, F.Jollet, F.Abreu Araujo, D.Adams, B.Amadon, T.Applencourt,
- C.Audouze, J.-M.Beuken, J.Bieder, A.Bokhanchuk, E.Bousquet, F.Bruneval
- D.Caliste, M.Cote, F.Dahm, F.Da Pieve, M.Delaveau, M.Di Gennaro,
- B.Dorado, C.Espejo, G.Geneste, L.Genovese, A.Gerossier, M.Giantomassi,
- Y.Gillet, D.R.Hamann, L.He, G.Jomard, J.Laflamme Janssen, S.Le Roux,
- A.Levitt, A.Lherbier, F.Liu, I.Lukacevic, A.Martin, C.Martins,
- M.J.T.Oliveira, S.Ponce, Y.Pouillon, T.Rangel, G.-M.Rignanese,
- A.H.Romero, B.Rousseau, O.Rubel, A.A.Shukri, M.Stankovski, M.Torrent,
- M.J.Van Setten, B.Van Troeye, M.J.Verstraete, D.Waroquier, J.Wiktor,
- B.Xue, A.Zhou, J.W.Zwanziger.
- Comment : the fourth generic paper describing the ABINIT project.
- Note that a version of this paper, that is not formatted for Computer Phys. Comm. 
- is available at http://www.abinit.org/about/ABINIT16.pdf .
- The licence allows the authors to put it on the Web.
-
- [2] ABINIT : First-principles approach of materials and nanosystem properties.
- Computer Phys. Comm. 180, 2582-2615 (2009).
- X. Gonze, B. Amadon, P.-M. Anglade, J.-M. Beuken, F. Bottin, P. Boulanger, F. Bruneval,
- D. Caliste, R. Caracas, M. Cote, T. Deutsch, L. Genovese, Ph. Ghosez, M. Giantomassi
- S. Goedecker, D.R. Hamann, P. Hermet, F. Jollet, G. Jomard, S. Leroux, M. Mancini, S. Mazevet,
- M.J.T. Oliveira, G. Onida, Y. Pouillon, T. Rangel, G.-M. Rignanese, D. Sangalli, R. Shaltaf,
- M. Torrent, M.J. Verstraete, G. Zerah, J.W. Zwanziger
- Comment : the third generic paper describing the ABINIT project.
- Note that a version of this paper, that is not formatted for Computer Phys. Comm. 
- is available at http://www.abinit.org/about/ABINIT_CPC_v10.pdf .
- The licence allows the authors to put it on the Web.
-
- [3] A brief introduction to the ABINIT software package.
- Z. Kristallogr. 220, 558-562 (2005).
- X. Gonze, G.-M. Rignanese, M. Verstraete, J.-M. Beuken, Y. Pouillon, R. Caracas, F. Jollet,
- M. Torrent, G. Zerah, M. Mikami, Ph. Ghosez, M. Veithen, J.-Y. Raty, V. Olevano, F. Bruneval,
- L. Reining, R. Godby, G. Onida, D.R. Hamann, and D.C. Allan.
- Comment : the second generic paper describing the ABINIT project. Note that this paper
- should be cited especially if you are using the GW part of ABINIT, as several authors
- of this part are not in the list of authors of the first or third paper.
- The .pdf of the latter paper is available at http://www.abinit.org/about/zfk_0505-06_558-562.pdf.
- Note that it should not redistributed (Copyright by Oldenburg Wissenshaftverlag,
- the licence allows the authors to put it on the Web).
-
- And optionally:
-
- [4] First-principles computation of material properties : the ABINIT software project. 
- X. Gonze, J.-M. Beuken, R. Caracas, F. Detraux, M. Fuchs, G.-M. Rignanese, L. Sindic,
- M. Verstraete, G. Zerah, F. Jollet, M. Torrent, A. Roy, M. Mikami, Ph. Ghosez, J.-Y. Raty, D.C. Allan.
- Computational Materials Science 25, 478-492 (2002). http://dx.doi.org/10.1016/S0927-0256(02)00325-7
- Comment : the original paper describing the ABINIT project.
-
- Proc.   0 individual time (sec): cpu=        194.4  wall=        206.9

================================================================================

 Calculation completed.
.Delivered   0 WARNINGs and   0 COMMENTs to log file.
+Overall time at end (sec) : cpu=        389.4  wall=        413.7
