
.Version 8.5.3 of ABINIT 
.(MPI version, prepared for a x86_64_darwin16.7.0_gnu4.8 computer) 

.Copyright (C) 1998-2017 ABINIT group . 
 ABINIT comes with ABSOLUTELY NO WARRANTY.
 It is free software, and you are welcome to redistribute it
 under certain conditions (GNU General Public License,
 see ~abinit/COPYING or http://www.gnu.org/copyleft/gpl.txt).

 ABINIT is a project of the Universite Catholique de Louvain,
 Corning Inc. and other collaborators, see ~abinit/doc/developers/contributors.txt .
 Please read ~abinit/doc/users/acknowledgments.html for suggested
 acknowledgments of the ABINIT effort.
 For more information, see http://www.abinit.org .

.Starting date : Wed 11 Oct 2017.
- ( at 00h49 )
  
- input  file    -> /Users/gmatteo/git_repos/abitutorials/abitutorials/base3/flow_base3_ebands/w0/t1/run.abi
- output file    -> /Users/gmatteo/git_repos/abitutorials/abitutorials/base3/flow_base3_ebands/w0/t1/run.abo
- root for input  files -> /Users/gmatteo/git_repos/abitutorials/abitutorials/base3/flow_base3_ebands/w0/t1/indata/in
- root for output files -> /Users/gmatteo/git_repos/abitutorials/abitutorials/base3/flow_base3_ebands/w0/t1/outdata/out


 Symmetries : space group Fd -3 m (#227); Bravais cF (face-center cubic)
================================================================================
 Values of the parameters that define the memory need of the present run
     intxc =       0    ionmov =       0      iscf =      -2    lmnmax =       2
     lnmax =       2     mgfft =      20  mpssoang =       3    mqgrid =    3001
     natom =       2  nloc_mem =       1    nspden =       1   nspinor =       1
    nsppol =       1      nsym =      48    n1xccc =    2501    ntypat =       1
    occopt =       1   xclevel =       1
-    mband =           5        mffmem =           1         mkmem =          51
       mpw =         310          nfft =        8000          nkpt =         101
================================================================================
P This job should need less than                       3.309 Mbytes of memory.
  Rough estimation (10% accuracy) of disk space for files :
_ WF disk file :      2.391 Mbytes ; DEN or POT disk file :      0.063 Mbytes.
================================================================================

--------------------------------------------------------------------------------
------------- Echo of variables that govern the present computation ------------
--------------------------------------------------------------------------------
-
- outvars: echo of selected default values                                      
-   iomode0 =  0 , fftalg0 =112 , wfoptalg0 =  0
-
- outvars: echo of global parameters not present in the input file              
-  max_nthreads =    0
-
 -outvars: echo values of preprocessed input variables --------
-          iomode           3
            acell      1.0000000000E+00  1.0000000000E+00  1.0000000000E+00 Bohr
              amu      2.80855000E+01
           diemac      1.20000000E+01
             ecut      8.00000000E+00 Hartree
-          fftalg         112
           irdden           1
             iscf          -2
           istwfk        2    0    0    0    0    0    0    0    0    0
                         0    0    0    0    5    0    0    0    0    0
                         0    0    0    0    0    0    0    0    0    0
                         0    0    0    0    0    0    0    0    0    0
                         0    2    0    0    0    0    0    0    0    0
                       outvar_i_n : Printing only first  50 k-points.
              kpt      0.00000000E+00  0.00000000E+00  0.00000000E+00
                       3.57142857E-02  0.00000000E+00  3.57142857E-02
                       7.14285714E-02  0.00000000E+00  7.14285714E-02
                       1.07142857E-01  0.00000000E+00  1.07142857E-01
                       1.42857143E-01  0.00000000E+00  1.42857143E-01
                       1.78571429E-01  0.00000000E+00  1.78571429E-01
                       2.14285714E-01  0.00000000E+00  2.14285714E-01
                       2.50000000E-01  0.00000000E+00  2.50000000E-01
                       2.85714286E-01  0.00000000E+00  2.85714286E-01
                       3.21428571E-01  0.00000000E+00  3.21428571E-01
                       3.57142857E-01  0.00000000E+00  3.57142857E-01
                       3.92857143E-01  0.00000000E+00  3.92857143E-01
                       4.28571429E-01  0.00000000E+00  4.28571429E-01
                       4.64285714E-01  0.00000000E+00  4.64285714E-01
                       5.00000000E-01  0.00000000E+00  5.00000000E-01
                       5.00000000E-01  3.57142857E-02  5.35714286E-01
                       5.00000000E-01  7.14285714E-02  5.71428571E-01
                       5.00000000E-01  1.07142857E-01  6.07142857E-01
                       5.00000000E-01  1.42857143E-01  6.42857143E-01
                       5.00000000E-01  1.78571429E-01  6.78571429E-01
                       5.00000000E-01  2.14285714E-01  7.14285714E-01
                       5.00000000E-01  2.50000000E-01  7.50000000E-01
                       4.75000000E-01  2.75000000E-01  7.50000000E-01
                       4.50000000E-01  3.00000000E-01  7.50000000E-01
                       4.25000000E-01  3.25000000E-01  7.50000000E-01
                       4.00000000E-01  3.50000000E-01  7.50000000E-01
                       3.75000000E-01  3.75000000E-01  7.50000000E-01
                       3.50000000E-01  3.50000000E-01  7.00000000E-01
                       3.25000000E-01  3.25000000E-01  6.50000000E-01
                       3.00000000E-01  3.00000000E-01  6.00000000E-01
                       2.75000000E-01  2.75000000E-01  5.50000000E-01
                       2.50000000E-01  2.50000000E-01  5.00000000E-01
                       2.25000000E-01  2.25000000E-01  4.50000000E-01
                       2.00000000E-01  2.00000000E-01  4.00000000E-01
                       1.75000000E-01  1.75000000E-01  3.50000000E-01
                       1.50000000E-01  1.50000000E-01  3.00000000E-01
                       1.25000000E-01  1.25000000E-01  2.50000000E-01
                       1.00000000E-01  1.00000000E-01  2.00000000E-01
                       7.50000000E-02  7.50000000E-02  1.50000000E-01
                       5.00000000E-02  5.00000000E-02  1.00000000E-01
                       2.50000000E-02  2.50000000E-02  5.00000000E-02
                       0.00000000E+00  0.00000000E+00  0.00000000E+00
                       4.16666667E-02  4.16666667E-02  4.16666667E-02
                       8.33333333E-02  8.33333333E-02  8.33333333E-02
                       1.25000000E-01  1.25000000E-01  1.25000000E-01
                       1.66666667E-01  1.66666667E-01  1.66666667E-01
                       2.08333333E-01  2.08333333E-01  2.08333333E-01
                       2.50000000E-01  2.50000000E-01  2.50000000E-01
                       2.91666667E-01  2.91666667E-01  2.91666667E-01
                       3.33333333E-01  3.33333333E-01  3.33333333E-01
                       outvar_i_n : Printing only first  50 k-points.
           kptopt         -11
P           mkmem          51
            natom           2
            nband           5
           nbdbuf           2
           ndivsm           5
            ngfft          20      20      20
             nkpt         101
             nsym          48
           ntypat           1
            rprim      6.3285005272E+00  0.0000000000E+00  3.6537614829E+00
                       2.1095001757E+00  5.9665675167E+00  3.6537614829E+00
                       0.0000000000E+00  0.0000000000E+00  7.3075229659E+00
           shiftk      5.00000000E-01  5.00000000E-01  5.00000000E-01
          spgroup         227
           symrel      1  0  0   0  1  0   0  0  1      -1  0  0   0 -1  0   0  0 -1
                       0 -1  1   0 -1  0   1 -1  0       0  1 -1   0  1  0  -1  1  0
                      -1  0  0  -1  0  1  -1  1  0       1  0  0   1  0 -1   1 -1  0
                       0  1 -1   1  0 -1   0  0 -1       0 -1  1  -1  0  1   0  0  1
                      -1  0  0  -1  1  0  -1  0  1       1  0  0   1 -1  0   1  0 -1
                       0 -1  1   1 -1  0   0 -1  0       0  1 -1  -1  1  0   0  1  0
                       1  0  0   0  0  1   0  1  0      -1  0  0   0  0 -1   0 -1  0
                       0  1 -1   0  0 -1   1  0 -1       0 -1  1   0  0  1  -1  0  1
                      -1  0  1  -1  1  0  -1  0  0       1  0 -1   1 -1  0   1  0  0
                       0 -1  0   1 -1  0   0 -1  1       0  1  0  -1  1  0   0  1 -1
                       1  0 -1   0  0 -1   0  1 -1      -1  0  1   0  0  1   0 -1  1
                       0  1  0   0  0  1   1  0  0       0 -1  0   0  0 -1  -1  0  0
                       1  0 -1   0  1 -1   0  0 -1      -1  0  1   0 -1  1   0  0  1
                       0 -1  0   0 -1  1   1 -1  0       0  1  0   0  1 -1  -1  1  0
                      -1  0  1  -1  0  0  -1  1  0       1  0 -1   1  0  0   1 -1  0
                       0  1  0   1  0  0   0  0  1       0 -1  0  -1  0  0   0  0 -1
                       0  0 -1   0  1 -1   1  0 -1       0  0  1   0 -1  1  -1  0  1
                       1 -1  0   0 -1  1   0 -1  0      -1  1  0   0  1 -1   0  1  0
                       0  0  1   1  0  0   0  1  0       0  0 -1  -1  0  0   0 -1  0
                      -1  1  0  -1  0  0  -1  0  1       1 -1  0   1  0  0   1  0 -1
                       0  0  1   0  1  0   1  0  0       0  0 -1   0 -1  0  -1  0  0
                       1 -1  0   0 -1  0   0 -1  1      -1  1  0   0  1  0   0  1 -1
                       0  0 -1   1  0 -1   0  1 -1       0  0  1  -1  0  1   0 -1  1
                      -1  1  0  -1  0  1  -1  0  0       1 -1  0   1  0 -1   1  0  0
            tnons      0.0000000  0.0000000  0.0000000     0.2500000  0.2500000  0.2500000
                       0.0000000  0.0000000  0.0000000     0.2500000  0.2500000  0.2500000
                       0.0000000  0.0000000  0.0000000     0.2500000  0.2500000  0.2500000
                       0.0000000  0.0000000  0.0000000     0.2500000  0.2500000  0.2500000
                       0.0000000  0.0000000  0.0000000     0.2500000  0.2500000  0.2500000
                       0.0000000  0.0000000  0.0000000     0.2500000  0.2500000  0.2500000
                       0.0000000  0.0000000  0.0000000     0.2500000  0.2500000  0.2500000
                       0.0000000  0.0000000  0.0000000     0.2500000  0.2500000  0.2500000
                       0.0000000  0.0000000  0.0000000     0.2500000  0.2500000  0.2500000
                       0.0000000  0.0000000  0.0000000     0.2500000  0.2500000  0.2500000
                       0.0000000  0.0000000  0.0000000     0.2500000  0.2500000  0.2500000
                       0.0000000  0.0000000  0.0000000     0.2500000  0.2500000  0.2500000
                       0.0000000  0.0000000  0.0000000     0.2500000  0.2500000  0.2500000
                       0.0000000  0.0000000  0.0000000     0.2500000  0.2500000  0.2500000
                       0.0000000  0.0000000  0.0000000     0.2500000  0.2500000  0.2500000
                       0.0000000  0.0000000  0.0000000     0.2500000  0.2500000  0.2500000
                       0.0000000  0.0000000  0.0000000     0.2500000  0.2500000  0.2500000
                       0.0000000  0.0000000  0.0000000     0.2500000  0.2500000  0.2500000
                       0.0000000  0.0000000  0.0000000     0.2500000  0.2500000  0.2500000
                       0.0000000  0.0000000  0.0000000     0.2500000  0.2500000  0.2500000
                       0.0000000  0.0000000  0.0000000     0.2500000  0.2500000  0.2500000
                       0.0000000  0.0000000  0.0000000     0.2500000  0.2500000  0.2500000
                       0.0000000  0.0000000  0.0000000     0.2500000  0.2500000  0.2500000
                       0.0000000  0.0000000  0.0000000     0.2500000  0.2500000  0.2500000
           tolwfr      1.00000000E-15
            typat      1  1
                       outvars : Printing only first  50 k-points.
           xangst      0.0000000000E+00  0.0000000000E+00  0.0000000000E+00
                       1.1162994145E+00  7.8934288584E-01  1.9334873024E+00
            xcart      0.0000000000E+00  0.0000000000E+00  0.0000000000E+00
                       2.1095001757E+00  1.4916418792E+00  3.6537614829E+00
             xred      0.0000000000E+00  0.0000000000E+00  0.0000000000E+00
                       2.5000000000E-01  2.5000000000E-01  2.5000000000E-01
            znucl       14.00000

================================================================================

 chkinp: Checking input parameters for consistency.

================================================================================
== DATASET  1 ==================================================================
-   nproc =    2

 Exchange-correlation functional for the present dataset will be:
  LDA: new Teter (4/93) with spin-polarized option - ixc=1
 Citation for XC functional:
  S. Goedecker, M. Teter, J. Huetter, PRB 54, 1703 (1996)

 Real(R)+Recip(G) space primitive vectors, cartesian coordinates (Bohr,Bohr^-1):
 R(1)=  6.3285005  0.0000000  3.6537615  G(1)=  0.1580153 -0.0558669  0.0000000
 R(2)=  2.1095002  5.9665675  3.6537615  G(2)=  0.0000000  0.1676006  0.0000000
 R(3)=  0.0000000  0.0000000  7.3075230  G(3)= -0.0790077 -0.0558669  0.1368453
 Unit cell volume ucvol=  2.7592787E+02 bohr^3
 Angles (23,13,12)=  6.00000000E+01  6.00000000E+01  6.00000000E+01 degrees

 getcut: wavevector=  0.0000  0.0000  0.0000  ngfft=  20  20  20
         ecut(hartree)=      8.000   => boxcut(ratio)=   2.14956

--- Pseudopotential description ------------------------------------------------
- pspini: atom type   1  psp file is /Users/gmatteo/git_repos/abipy/abipy/data/pseudos/14si.pspnc
- pspatm: opening atomic psp file    /Users/gmatteo/git_repos/abipy/abipy/data/pseudos/14si.pspnc
-  Troullier-Martins psp for element  Si        Thu Oct 27 17:31:21 EDT 1994
- 14.00000   4.00000    940714                znucl, zion, pspdat
    1    1    2    2      2001   0.00000      pspcod,pspxc,lmax,lloc,mmax,r2well
    0   5.907  14.692    1   2.0872718        l,e99.0,e99.9,nproj,rcpsp
   0.00000000   0.00000000   0.00000000   0.00000000     rms, ekb1, ekb2, epsatm
    1   2.617   4.181    1   2.0872718        l,e99.0,e99.9,nproj,rcpsp
   0.00000000   0.00000000   0.00000000   0.00000000     rms, ekb1, ekb2, epsatm
    2   0.000   0.000    0   2.0872718        l,e99.0,e99.9,nproj,rcpsp
   0.00000000   0.00000000   0.00000000   0.00000000     rms, ekb1, ekb2, epsatm
    1.80626423934776    0.22824404341771    1.17378968127746   rchrg,fchrg,qchrg
  pspatm : epsatm=    1.43386982
         --- l  ekb(1:nproj) -->
             0    3.287949
             1    1.849886
 pspatm: atomic psp has been read  and splines computed

--------------------------------------------------------------------------------


================================================================================
 prteigrs : about to open file /Users/gmatteo/git_repos/abitutorials/abitutorials/base3/flow_base3_ebands/w0/t1/outdata/out_EIG
 Non-SCF case, kpt    1 (  0.00000  0.00000  0.00000), residuals and eigenvalues=
  8.91E-16  8.63E-16  8.74E-16  7.80E-16  8.49E-11
 -2.3094E-01  2.0460E-01  2.0460E-01  2.0460E-01  2.9693E-01
  prteigrs : nnsclo,ikpt=   30    1 max resid (incl. the buffer)=  8.48627E-11
 Non-SCF case, kpt    2 (  0.03571  0.00000  0.03571), residuals and eigenvalues=
  5.23E-16  5.24E-16  3.11E-16  4.49E-16  2.38E-05
 -2.3012E-01  1.9871E-01  2.0122E-01  2.0122E-01  2.9523E-01
  prteigrs : nnsclo,ikpt=   30    2 max resid (incl. the buffer)=  2.38182E-05
 Non-SCF case, kpt    3 (  0.07143  0.00000  0.07143), residuals and eigenvalues=
  6.68E-16  6.15E-16  5.82E-16  1.11E-16  9.84E-08
 -2.2769E-01  1.8389E-01  1.9254E-01  1.9254E-01  2.8914E-01
  prteigrs : nnsclo,ikpt=   30    3 max resid (incl. the buffer)=  9.83983E-08
 Non-SCF case, kpt    4 (  0.10714  0.00000  0.10714), residuals and eigenvalues=
  2.67E-16  7.93E-16  7.50E-16  4.45E-16  1.73E-11
 -2.2366E-01  1.6447E-01  1.8125E-01  1.8125E-01  2.8076E-01
  prteigrs : nnsclo,ikpt=   30    4 max resid (incl. the buffer)=  1.72622E-11
 Non-SCF case, kpt    5 (  0.14286  0.00000  0.14286), residuals and eigenvalues=
  3.18E-16  4.21E-16  3.51E-16  8.03E-16  1.44E-12
 -2.1801E-01  1.4296E-01  1.6921E-01  1.6921E-01  2.7126E-01
  prteigrs : nnsclo,ikpt=   30    5 max resid (incl. the buffer)=  1.43604E-12
 Non-SCF case, kpt    6 (  0.17857  0.00000  0.17857), residuals and eigenvalues=
  1.35E-16  6.83E-16  2.45E-16  7.42E-17  6.24E-14
 -2.1080E-01  1.2047E-01  1.5731E-01  1.5731E-01  2.6149E-01
  prteigrs : nnsclo,ikpt=   30    6 max resid (incl. the buffer)=  6.23682E-14
 Non-SCF case, kpt    7 (  0.21429  0.00000  0.21429), residuals and eigenvalues=
  4.14E-16  4.28E-16  5.49E-16  1.94E-16  4.47E-14
 -2.0203E-01  9.7501E-02  1.4611E-01  1.4611E-01  2.5213E-01
  prteigrs : nnsclo,ikpt=   30    7 max resid (incl. the buffer)=  4.46742E-14
 Non-SCF case, kpt    8 (  0.25000  0.00000  0.25000), residuals and eigenvalues=
  1.37E-16  5.68E-16  3.29E-16  2.50E-16  2.43E-13
 -1.9174E-01  7.4328E-02  1.3588E-01  1.3588E-01  2.4366E-01
  prteigrs : nnsclo,ikpt=   30    8 max resid (incl. the buffer)=  2.42545E-13
 Non-SCF case, kpt    9 (  0.28571  0.00000  0.28571), residuals and eigenvalues=
  3.76E-16  6.21E-16  5.16E-16  3.35E-16  4.19E-12
 -1.7994E-01  5.1120E-02  1.2681E-01  1.2681E-01  2.3643E-01
  prteigrs : nnsclo,ikpt=   30    9 max resid (incl. the buffer)=  4.19389E-12
 Non-SCF case, kpt   10 (  0.32143  0.00000  0.32143), residuals and eigenvalues=
  3.83E-16  1.63E-16  3.75E-16  2.52E-16  1.67E-11
 -1.6671E-01  2.7992E-02  1.1901E-01  1.1901E-01  2.3054E-01
  prteigrs : nnsclo,ikpt=   30   10 max resid (incl. the buffer)=  1.66841E-11
 Non-SCF case, kpt   11 (  0.35714  0.00000  0.35714), residuals and eigenvalues=
  3.77E-16  9.52E-16  1.93E-16  2.94E-16  1.50E-10
 -1.5204E-01  5.1377E-03  1.1259E-01  1.1259E-01  2.2639E-01
  prteigrs : nnsclo,ikpt=   30   11 max resid (incl. the buffer)=  1.49918E-10
 Non-SCF case, kpt   12 (  0.39286  0.00000  0.39286), residuals and eigenvalues=
  3.85E-16  2.03E-16  2.60E-16  3.31E-16  3.12E-14
 -1.3605E-01 -1.7335E-02  1.0755E-01  1.0755E-01  2.2402E-01
  prteigrs : nnsclo,ikpt=   30   12 max resid (incl. the buffer)=  3.11867E-14
 Non-SCF case, kpt   13 (  0.42857  0.00000  0.42857), residuals and eigenvalues=
  3.81E-16  1.29E-16  5.74E-16  3.44E-16  2.33E-11
 -1.1883E-01 -3.9281E-02  1.0389E-01  1.0389E-01  2.2359E-01
  prteigrs : nnsclo,ikpt=   30   13 max resid (incl. the buffer)=  2.33089E-11
 Non-SCF case, kpt   14 (  0.46429  0.00000  0.46429), residuals and eigenvalues=
  2.97E-16  3.02E-16  5.39E-16  1.91E-16  2.62E-12
 -1.0043E-01 -6.0532E-02  1.0169E-01  1.0169E-01  2.2513E-01
  prteigrs : nnsclo,ikpt=   30   14 max resid (incl. the buffer)=  2.61540E-12
 Non-SCF case, kpt   15 (  0.50000  0.00000  0.50000), residuals and eigenvalues=
  6.98E-16  2.09E-16  7.77E-16  5.50E-16  2.13E-16
 -8.0958E-02 -8.0958E-02  1.0095E-01  1.0095E-01  2.2878E-01
 Non-SCF case, kpt   16 (  0.50000  0.03571  0.53571), residuals and eigenvalues=
  8.19E-16  1.64E-16  6.12E-16  2.12E-16  6.56E-16
 -8.0692E-02 -8.0692E-02  9.8542E-02  9.8542E-02  2.3324E-01
 Non-SCF case, kpt   17 (  0.50000  0.07143  0.57143), residuals and eigenvalues=
  1.81E-16  3.08E-16  3.31E-16  4.36E-16  1.70E-16
 -7.9934E-02 -7.9934E-02  9.2344E-02  9.2344E-02  2.4561E-01
 Non-SCF case, kpt   18 (  0.50000  0.10714  0.60714), residuals and eigenvalues=
  2.37E-16  3.06E-16  9.72E-17  4.36E-16  7.85E-17
 -7.8812E-02 -7.8812E-02  8.4424E-02  8.4424E-02  2.6391E-01
 Non-SCF case, kpt   19 (  0.50000  0.14286  0.64286), residuals and eigenvalues=
  3.11E-16  9.30E-16  2.32E-16  1.10E-16  4.81E-16
 -7.7512E-02 -7.7512E-02  7.6618E-02  7.6618E-02  2.8640E-01
 Non-SCF case, kpt   20 (  0.50000  0.17857  0.67857), residuals and eigenvalues=
  2.24E-16  1.33E-16  7.01E-17  6.98E-17  4.61E-15
 -7.6299E-02 -7.6299E-02  7.0214E-02  7.0214E-02  3.1180E-01
  prteigrs : nnsclo,ikpt=   30   20 max resid (incl. the buffer)=  4.61369E-15
 Non-SCF case, kpt   21 (  0.50000  0.21429  0.71429), residuals and eigenvalues=
  4.83E-16  8.62E-16  1.23E-16  8.68E-17  5.04E-10
 -7.5429E-02 -7.5429E-02  6.6047E-02  6.6047E-02  3.3897E-01
  prteigrs : nnsclo,ikpt=   30   21 max resid (incl. the buffer)=  5.03928E-10
 Non-SCF case, kpt   22 (  0.50000  0.25000  0.75000), residuals and eigenvalues=
  1.30E-16  5.18E-16  5.08E-16  5.94E-16  1.81E-05
 -7.5130E-02 -7.5130E-02  6.4559E-02  6.4559E-02  3.5972E-01
  prteigrs : nnsclo,ikpt=   30   22 max resid (incl. the buffer)=  1.80911E-05
 Non-SCF case, kpt   23 (  0.47500  0.27500  0.75000), residuals and eigenvalues=
  1.58E-16  9.29E-16  1.55E-16  3.29E-16  2.29E-09
 -8.2609E-02 -6.8129E-02  5.8880E-02  7.3119E-02  3.3343E-01
  prteigrs : nnsclo,ikpt=   30   23 max resid (incl. the buffer)=  2.29138E-09
 Non-SCF case, kpt   24 (  0.45000  0.30000  0.75000), residuals and eigenvalues=
  4.15E-16  1.72E-16  2.66E-16  7.79E-16  1.74E-12
 -8.8461E-02 -6.3663E-02  5.4296E-02  8.5356E-02  3.0188E-01
  prteigrs : nnsclo,ikpt=   30   24 max resid (incl. the buffer)=  1.74454E-12
 Non-SCF case, kpt   25 (  0.42500  0.32500  0.75000), residuals and eigenvalues=
  8.66E-17  1.19E-16  1.36E-16  1.84E-16  3.44E-12
 -9.2659E-02 -6.1136E-02  5.0969E-02  9.9306E-02  2.7432E-01
  prteigrs : nnsclo,ikpt=   30   25 max resid (incl. the buffer)=  3.44322E-12
 Non-SCF case, kpt   26 (  0.40000  0.35000  0.75000), residuals and eigenvalues=
  4.52E-16  2.26E-16  1.35E-16  7.76E-16  5.60E-15
 -9.5189E-02 -5.9915E-02  4.8964E-02  1.1138E-01  2.5430E-01
  prteigrs : nnsclo,ikpt=   30   26 max resid (incl. the buffer)=  5.60012E-15
 Non-SCF case, kpt   27 (  0.37500  0.37500  0.75000), residuals and eigenvalues=
  1.68E-16  7.44E-16  8.45E-17  1.85E-16  2.14E-13
 -9.6036E-02 -5.9563E-02  4.8277E-02  1.1644E-01  2.4659E-01
  prteigrs : nnsclo,ikpt=   30   27 max resid (incl. the buffer)=  2.14170E-13
 Non-SCF case, kpt   28 (  0.35000  0.35000  0.70000), residuals and eigenvalues=
  4.73E-16  1.49E-16  1.75E-16  1.17E-16  4.56E-16
 -1.0537E-01 -5.0196E-02  4.4294E-02  1.2296E-01  2.5417E-01
 Non-SCF case, kpt   29 (  0.32500  0.32500  0.65000), residuals and eigenvalues=
  2.98E-16  1.40E-16  8.17E-17  6.78E-17  8.37E-16
 -1.1690E-01 -3.9167E-02  4.4895E-02  1.3039E-01  2.6269E-01
 Non-SCF case, kpt   30 (  0.30000  0.30000  0.60000), residuals and eigenvalues=
  5.75E-16  1.44E-16  4.22E-16  2.00E-16  6.66E-14
 -1.2986E-01 -2.6525E-02  4.9462E-02  1.3854E-01  2.7196E-01
  prteigrs : nnsclo,ikpt=   30   30 max resid (incl. the buffer)=  6.65992E-14
 Non-SCF case, kpt   31 (  0.27500  0.27500  0.55000), residuals and eigenvalues=
  4.44E-16  1.31E-16  9.06E-16  2.62E-16  2.78E-15
 -1.4342E-01 -1.2223E-02  5.7368E-02  1.4721E-01  2.8158E-01
  prteigrs : nnsclo,ikpt=   30   31 max resid (incl. the buffer)=  2.78183E-15
 Non-SCF case, kpt   32 (  0.25000  0.25000  0.50000), residuals and eigenvalues=
  5.20E-16  6.51E-16  4.80E-16  2.63E-16  1.53E-11
 -1.5694E-01  3.6955E-03  6.7985E-02  1.5619E-01  2.9107E-01
  prteigrs : nnsclo,ikpt=   30   32 max resid (incl. the buffer)=  1.52581E-11
 Non-SCF case, kpt   33 (  0.22500  0.22500  0.45000), residuals and eigenvalues=
  1.34E-16  2.59E-16  7.78E-16  2.64E-16  5.67E-11
 -1.6993E-01  2.1183E-02  8.0730E-02  1.6513E-01  2.9955E-01
  prteigrs : nnsclo,ikpt=   30   33 max resid (incl. the buffer)=  5.66992E-11
 Non-SCF case, kpt   34 (  0.20000  0.20000  0.40000), residuals and eigenvalues=
  4.21E-16  3.16E-16  5.12E-16  4.21E-16  1.28E-08
 -1.8207E-01  4.0153E-02  9.5240E-02  1.7368E-01  3.0603E-01
  prteigrs : nnsclo,ikpt=   30   34 max resid (incl. the buffer)=  1.28013E-08
 Non-SCF case, kpt   35 (  0.17500  0.17500  0.35000), residuals and eigenvalues=
  3.08E-16  2.86E-16  6.52E-16  9.70E-16  2.17E-08
 -1.9312E-01  6.0552E-02  1.1110E-01  1.8149E-01  3.0980E-01
  prteigrs : nnsclo,ikpt=   30   35 max resid (incl. the buffer)=  2.17082E-08
 Non-SCF case, kpt   36 (  0.15000  0.15000  0.30000), residuals and eigenvalues=
  1.11E-16  2.99E-16  4.72E-16  2.20E-16  3.24E-06
 -2.0291E-01  8.2317E-02  1.2792E-01  1.8827E-01  3.1082E-01
  prteigrs : nnsclo,ikpt=   30   36 max resid (incl. the buffer)=  3.23942E-06
 Non-SCF case, kpt   37 (  0.12500  0.12500  0.25000), residuals and eigenvalues=
  1.74E-16  6.72E-16  3.12E-16  9.71E-15  2.96E-06
 -2.1135E-01  1.0523E-01  1.4519E-01  1.9379E-01  3.0982E-01
  prteigrs : nnsclo,ikpt=   30   37 max resid (incl. the buffer)=  2.95986E-06
 Non-SCF case, kpt   38 (  0.10000  0.10000  0.20000), residuals and eigenvalues=
  8.95E-16  6.37E-16  3.20E-16  2.37E-15  1.79E-05
 -2.1834E-01  1.2906E-01  1.6224E-01  1.9805E-01  3.0883E-01
  prteigrs : nnsclo,ikpt=   30   38 max resid (incl. the buffer)=  1.78671E-05
 Non-SCF case, kpt   39 (  0.07500  0.07500  0.15000), residuals and eigenvalues=
  1.67E-16  6.90E-16  6.06E-16  1.23E-14  4.24E-05
 -2.2382E-01  1.5327E-01  1.7821E-01  2.0111E-01  3.0469E-01
  prteigrs : nnsclo,ikpt=   30   39 max resid (incl. the buffer)=  4.24159E-05
 Non-SCF case, kpt   40 (  0.05000  0.05000  0.10000), residuals and eigenvalues=
  2.80E-16  8.87E-16  4.45E-16  1.61E-16  1.25E-05
 -2.2776E-01  1.7666E-01  1.9177E-01  2.0311E-01  3.0067E-01
  prteigrs : nnsclo,ikpt=   30   40 max resid (incl. the buffer)=  1.25301E-05
 Non-SCF case, kpt   41 (  0.02500  0.02500  0.05000), residuals and eigenvalues=
  2.04E-16  5.03E-16  8.54E-16  9.50E-16  1.96E-06
 -2.3014E-01  1.9614E-01  2.0119E-01  2.0425E-01  2.9834E-01
  prteigrs : nnsclo,ikpt=   30   41 max resid (incl. the buffer)=  1.96184E-06
 Non-SCF case, kpt   42 (  0.00000  0.00000  0.00000), residuals and eigenvalues=
  8.91E-16  8.63E-16  8.74E-16  7.80E-16  8.49E-11
 -2.3094E-01  2.0460E-01  2.0460E-01  2.0460E-01  2.9693E-01
  prteigrs : nnsclo,ikpt=   30   42 max resid (incl. the buffer)=  8.48627E-11
 Non-SCF case, kpt   43 (  0.04167  0.04167  0.04167), residuals and eigenvalues=
  3.47E-16  9.57E-16  8.29E-16  7.80E-16  2.22E-06
 -2.3010E-01  1.9482E-01  2.0320E-01  2.0320E-01  2.9888E-01
  prteigrs : nnsclo,ikpt=   30   43 max resid (incl. the buffer)=  2.21656E-06
 Non-SCF case, kpt   44 (  0.08333  0.08333  0.08333), residuals and eigenvalues=
  9.65E-16  8.44E-16  2.14E-16  1.55E-16  3.04E-06
 -2.2763E-01  1.7232E-01  1.9935E-01  1.9935E-01  2.9548E-01
  prteigrs : nnsclo,ikpt=   30   44 max resid (incl. the buffer)=  3.04194E-06
 Non-SCF case, kpt   45 (  0.12500  0.12500  0.12500), residuals and eigenvalues=
  2.01E-16  5.57E-16  2.51E-16  2.72E-16  2.12E-08
 -2.2353E-01  1.4514E-01  1.9404E-01  1.9404E-01  2.9036E-01
  prteigrs : nnsclo,ikpt=   30   45 max resid (incl. the buffer)=  2.12308E-08
 Non-SCF case, kpt   46 (  0.16667  0.16667  0.16667), residuals and eigenvalues=
  2.50E-16  3.74E-16  5.38E-16  1.74E-16  5.18E-10
 -2.1784E-01  1.1660E-01  1.8814E-01  1.8814E-01  2.8425E-01
  prteigrs : nnsclo,ikpt=   30   46 max resid (incl. the buffer)=  5.17652E-10
 Non-SCF case, kpt   47 (  0.20833  0.20833  0.20833), residuals and eigenvalues=
  1.42E-16  2.45E-16  1.81E-16  1.91E-16  1.61E-10
 -2.1060E-01  8.8171E-02  1.8230E-01  1.8230E-01  2.7794E-01
  prteigrs : nnsclo,ikpt=   30   47 max resid (incl. the buffer)=  1.60753E-10
 Non-SCF case, kpt   48 (  0.25000  0.25000  0.25000), residuals and eigenvalues=
  2.64E-16  3.95E-16  7.43E-16  8.61E-16  6.45E-14
 -2.0195E-01  6.0495E-02  1.7684E-01  1.7684E-01  2.7193E-01
  prteigrs : nnsclo,ikpt=   30   48 max resid (incl. the buffer)=  6.45440E-14
 Non-SCF case, kpt   49 (  0.29167  0.29167  0.29167), residuals and eigenvalues=
  5.34E-16  7.30E-16  3.67E-16  4.13E-16  7.23E-15
 -1.9201E-01  3.4122E-02  1.7205E-01  1.7205E-01  2.6658E-01
  prteigrs : nnsclo,ikpt=   30   49 max resid (incl. the buffer)=  7.23081E-15
 Non-SCF case, kpt   50 (  0.33333  0.33333  0.33333), residuals and eigenvalues=
  3.52E-16  1.68E-16  1.89E-16  2.35E-16  5.24E-15
 -1.8107E-01  9.5315E-03  1.6805E-01  1.6805E-01  2.6206E-01
  prteigrs : nnsclo,ikpt=   30   50 max resid (incl. the buffer)=  5.23822E-15
 Non-SCF case, kpt   51 (  0.37500  0.37500  0.37500), residuals and eigenvalues=
  5.81E-16  4.92E-16  8.82E-16  7.86E-16  6.08E-12
 -1.6960E-01 -1.2641E-02  1.6491E-01  1.6491E-01  2.5860E-01
  prteigrs : nnsclo,ikpt=   30   51 max resid (incl. the buffer)=  6.08314E-12
 Non-SCF case, kpt   52 (  0.41667  0.41667  0.41667), residuals and eigenvalues=
  5.03E-16  7.54E-16  8.36E-16  3.01E-16  3.51E-12
 -1.5863E-01 -3.1324E-02  1.6264E-01  1.6264E-01  2.5600E-01
  prteigrs : nnsclo,ikpt=   30   52 max resid (incl. the buffer)=  3.51264E-12
 Non-SCF case, kpt   53 (  0.45833  0.45833  0.45833), residuals and eigenvalues=
  5.96E-16  4.75E-16  3.09E-16  5.49E-16  1.69E-12
 -1.5002E-01 -4.4554E-02  1.6129E-01  1.6129E-01  2.5447E-01
  prteigrs : nnsclo,ikpt=   30   53 max resid (incl. the buffer)=  1.68550E-12
 Non-SCF case, kpt   54 (  0.50000  0.50000  0.50000), residuals and eigenvalues=
  3.94E-16  2.03E-16  7.33E-16  1.58E-16  3.19E-13
 -1.4660E-01 -4.9567E-02  1.6079E-01  1.6079E-01  2.5388E-01
  prteigrs : nnsclo,ikpt=   30   54 max resid (incl. the buffer)=  3.18923E-13
 Non-SCF case, kpt   55 (  0.51389  0.47222  0.51389), residuals and eigenvalues=
  3.02E-16  1.59E-16  1.82E-16  3.58E-16  1.31E-11
 -1.4587E-01 -4.9180E-02  1.5391E-01  1.5944E-01  2.6026E-01
  prteigrs : nnsclo,ikpt=   30   55 max resid (incl. the buffer)=  1.31426E-11
 Non-SCF case, kpt   56 (  0.52778  0.44444  0.52778), residuals and eigenvalues=
  1.88E-16  2.95E-16  1.83E-16  9.37E-16  1.72E-10
 -1.4368E-01 -4.8098E-02  1.3751E-01  1.5572E-01  2.7341E-01
  prteigrs : nnsclo,ikpt=   30   56 max resid (incl. the buffer)=  1.72090E-10
 Non-SCF case, kpt   57 (  0.54167  0.41667  0.54167), residuals and eigenvalues=
  2.49E-16  7.30E-16  1.68E-16  3.24E-16  6.69E-10
 -1.4005E-01 -4.6504E-02  1.1753E-01  1.5026E-01  2.8149E-01
  prteigrs : nnsclo,ikpt=   30   57 max resid (incl. the buffer)=  6.69339E-10
 Non-SCF case, kpt   58 (  0.55556  0.38889  0.55556), residuals and eigenvalues=
  2.86E-16  8.06E-16  2.71E-16  4.92E-16  3.52E-12
 -1.3500E-01 -4.4750E-02  9.7135E-02  1.4389E-01  2.7923E-01
  prteigrs : nnsclo,ikpt=   30   58 max resid (incl. the buffer)=  3.51613E-12
 Non-SCF case, kpt   59 (  0.56944  0.36111  0.56944), residuals and eigenvalues=
  6.68E-16  8.71E-16  6.49E-16  8.63E-16  2.85E-15
 -1.2859E-01 -4.3494E-02  7.8237E-02  1.3729E-01  2.7225E-01
  prteigrs : nnsclo,ikpt=   30   59 max resid (incl. the buffer)=  2.85461E-15
 Non-SCF case, kpt   60 (  0.58333  0.33333  0.58333), residuals and eigenvalues=
  3.40E-16  1.10E-16  6.88E-16  2.37E-16  7.29E-16
 -1.2092E-01 -4.3759E-02  6.2557E-02  1.3094E-01  2.6448E-01
 Non-SCF case, kpt   61 (  0.59722  0.30556  0.59722), residuals and eigenvalues=
  3.81E-16  1.50E-16  8.09E-16  9.93E-16  2.18E-16
 -1.1224E-01 -4.6782E-02  5.1837E-02  1.2522E-01  2.5731E-01
 Non-SCF case, kpt   62 (  0.61111  0.27778  0.61111), residuals and eigenvalues=
  7.43E-16  7.32E-16  1.52E-16  6.76E-16  8.78E-16
 -1.0321E-01 -5.2918E-02  4.7172E-02  1.2033E-01  2.5123E-01
 Non-SCF case, kpt   63 (  0.62500  0.25000  0.62500), residuals and eigenvalues=
  1.44E-16  1.61E-16  1.87E-16  2.70E-16  4.85E-15
 -9.6036E-02 -5.9563E-02  4.8277E-02  1.1644E-01  2.4659E-01
  prteigrs : nnsclo,ikpt=   30   63 max resid (incl. the buffer)=  4.84598E-15
 Non-SCF case, kpt   64 (  0.60000  0.25000  0.65000), residuals and eigenvalues=
  3.28E-16  3.03E-16  2.99E-16  1.40E-16  6.80E-16
 -9.5189E-02 -5.9915E-02  4.8964E-02  1.1138E-01  2.5430E-01
 Non-SCF case, kpt   65 (  0.57500  0.25000  0.67500), residuals and eigenvalues=
  4.11E-16  4.84E-16  8.15E-16  2.07E-16  1.44E-13
 -9.2659E-02 -6.1136E-02  5.0969E-02  9.9306E-02  2.7432E-01
  prteigrs : nnsclo,ikpt=   30   65 max resid (incl. the buffer)=  1.44256E-13
 Non-SCF case, kpt   66 (  0.55000  0.25000  0.70000), residuals and eigenvalues=
  1.76E-16  7.52E-16  1.66E-16  9.82E-16  2.57E-11
 -8.8461E-02 -6.3663E-02  5.4296E-02  8.5356E-02  3.0188E-01
  prteigrs : nnsclo,ikpt=   30   66 max resid (incl. the buffer)=  2.57374E-11
 Non-SCF case, kpt   67 (  0.52500  0.25000  0.72500), residuals and eigenvalues=
  5.54E-16  3.84E-16  6.12E-16  2.72E-16  8.86E-08
 -8.2609E-02 -6.8129E-02  5.8880E-02  7.3119E-02  3.3343E-01
  prteigrs : nnsclo,ikpt=   30   67 max resid (incl. the buffer)=  8.85608E-08
 Non-SCF case, kpt   68 (  0.50000  0.25000  0.75000), residuals and eigenvalues=
  1.30E-16  5.18E-16  5.08E-16  5.94E-16  1.81E-05
 -7.5130E-02 -7.5130E-02  6.4559E-02  6.4559E-02  3.5972E-01
  prteigrs : nnsclo,ikpt=   30   68 max resid (incl. the buffer)=  1.80911E-05
 Non-SCF case, kpt   69 (  0.50000  0.27500  0.72500), residuals and eigenvalues=
  4.11E-16  5.31E-16  8.03E-16  1.33E-16  5.12E-06
 -8.6943E-02 -6.3737E-02  5.7342E-02  7.4709E-02  3.4858E-01
  prteigrs : nnsclo,ikpt=   30   69 max resid (incl. the buffer)=  5.11557E-06
 Non-SCF case, kpt   70 (  0.50000  0.30000  0.70000), residuals and eigenvalues=
  9.73E-16  7.81E-17  3.86E-16  2.37E-16  1.59E-06
 -9.8450E-02 -5.3974E-02  5.4176E-02  8.6704E-02  3.3758E-01
  prteigrs : nnsclo,ikpt=   30   70 max resid (incl. the buffer)=  1.58863E-06
 Non-SCF case, kpt   71 (  0.50000  0.32500  0.67500), residuals and eigenvalues=
  3.30E-16  4.23E-16  1.64E-16  8.85E-17  5.18E-05
 -1.0918E-01 -4.7086E-02  5.6481E-02  9.9726E-02  3.2860E-01
  prteigrs : nnsclo,ikpt=   30   71 max resid (incl. the buffer)=  5.18293E-05
 Non-SCF case, kpt   72 (  0.50000  0.35000  0.65000), residuals and eigenvalues=
  7.09E-16  1.58E-16  5.33E-16  5.55E-16  6.26E-06
 -1.1879E-01 -4.3700E-02  6.4839E-02  1.1311E-01  3.2268E-01
  prteigrs : nnsclo,ikpt=   30   72 max resid (incl. the buffer)=  6.26449E-06
 Non-SCF case, kpt   73 (  0.50000  0.37500  0.62500), residuals and eigenvalues=
  3.98E-16  8.35E-16  8.54E-16  8.71E-16  4.38E-07
 -1.2713E-01 -4.3236E-02  7.8554E-02  1.2606E-01  3.1253E-01
  prteigrs : nnsclo,ikpt=   30   73 max resid (incl. the buffer)=  4.38074E-07
 Non-SCF case, kpt   74 (  0.50000  0.40000  0.60000), residuals and eigenvalues=
  2.93E-16  7.73E-16  2.88E-16  2.89E-16  4.50E-07
 -1.3407E-01 -4.4465E-02  9.6199E-02  1.3781E-01  3.0172E-01
  prteigrs : nnsclo,ikpt=   30   74 max resid (incl. the buffer)=  4.50484E-07
 Non-SCF case, kpt   75 (  0.50000  0.42500  0.57500), residuals and eigenvalues=
  1.79E-16  2.10E-16  7.66E-16  9.55E-16  2.92E-09
 -1.3952E-01 -4.6284E-02  1.1610E-01  1.4762E-01  2.8969E-01
  prteigrs : nnsclo,ikpt=   30   75 max resid (incl. the buffer)=  2.91702E-09
 Non-SCF case, kpt   76 (  0.50000  0.45000  0.55000), residuals and eigenvalues=
  3.58E-16  8.89E-16  4.39E-16  4.93E-16  2.13E-10
 -1.4345E-01 -4.7989E-02  1.3631E-01  1.5488E-01  2.7528E-01
  prteigrs : nnsclo,ikpt=   30   76 max resid (incl. the buffer)=  2.12794E-10
 Non-SCF case, kpt   77 (  0.50000  0.47500  0.52500), residuals and eigenvalues=
  3.88E-16  6.84E-16  5.31E-16  5.37E-16  2.83E-12
 -1.4581E-01 -4.9150E-02  1.5342E-01  1.5932E-01  2.6075E-01
  prteigrs : nnsclo,ikpt=   30   77 max resid (incl. the buffer)=  2.83222E-12
 Non-SCF case, kpt   78 (  0.50000  0.50000  0.50000), residuals and eigenvalues=
  3.94E-16  2.03E-16  7.33E-16  1.58E-16  3.19E-13
 -1.4660E-01 -4.9567E-02  1.6079E-01  1.6079E-01  2.5388E-01
  prteigrs : nnsclo,ikpt=   30   78 max resid (incl. the buffer)=  3.18923E-13
 Non-SCF case, kpt   79 (  0.48611  0.48611  0.52778), residuals and eigenvalues=
  8.03E-16  6.99E-16  3.90E-16  6.30E-16  1.54E-11
 -1.4587E-01 -4.9180E-02  1.5391E-01  1.5944E-01  2.6026E-01
  prteigrs : nnsclo,ikpt=   30   79 max resid (incl. the buffer)=  1.54276E-11
 Non-SCF case, kpt   80 (  0.47222  0.47222  0.55556), residuals and eigenvalues=
  8.05E-16  2.98E-16  9.52E-17  6.28E-16  8.76E-10
 -1.4368E-01 -4.8098E-02  1.3751E-01  1.5572E-01  2.7341E-01
  prteigrs : nnsclo,ikpt=   30   80 max resid (incl. the buffer)=  8.76304E-10
 Non-SCF case, kpt   81 (  0.45833  0.45833  0.58333), residuals and eigenvalues=
  2.14E-16  6.71E-16  1.91E-16  3.42E-16  4.98E-10
 -1.4005E-01 -4.6504E-02  1.1753E-01  1.5026E-01  2.8149E-01
  prteigrs : nnsclo,ikpt=   30   81 max resid (incl. the buffer)=  4.97814E-10
 Non-SCF case, kpt   82 (  0.44444  0.44444  0.61111), residuals and eigenvalues=
  5.40E-16  4.89E-16  8.76E-16  6.30E-16  1.50E-11
 -1.3500E-01 -4.4750E-02  9.7135E-02  1.4389E-01  2.7923E-01
  prteigrs : nnsclo,ikpt=   30   82 max resid (incl. the buffer)=  1.50404E-11
 Non-SCF case, kpt   83 (  0.43056  0.43056  0.63889), residuals and eigenvalues=
  3.60E-16  2.15E-16  1.94E-16  1.45E-16  3.64E-14
 -1.2859E-01 -4.3494E-02  7.8237E-02  1.3729E-01  2.7225E-01
  prteigrs : nnsclo,ikpt=   30   83 max resid (incl. the buffer)=  3.63520E-14
 Non-SCF case, kpt   84 (  0.41667  0.41667  0.66667), residuals and eigenvalues=
  8.39E-16  4.85E-16  4.87E-16  3.14E-16  2.38E-16
 -1.2092E-01 -4.3759E-02  6.2557E-02  1.3094E-01  2.6448E-01
 Non-SCF case, kpt   85 (  0.40278  0.40278  0.69444), residuals and eigenvalues=
  7.08E-16  2.10E-16  1.51E-16  4.22E-16  4.91E-16
 -1.1224E-01 -4.6782E-02  5.1837E-02  1.2522E-01  2.5731E-01
 Non-SCF case, kpt   86 (  0.38889  0.38889  0.72222), residuals and eigenvalues=
  1.62E-16  4.47E-16  1.73E-16  3.83E-16  9.53E-16
 -1.0321E-01 -5.2918E-02  4.7172E-02  1.2033E-01  2.5123E-01
 Non-SCF case, kpt   87 (  0.37500  0.37500  0.75000), residuals and eigenvalues=
  1.68E-16  7.44E-16  8.45E-17  1.85E-16  2.14E-13
 -9.6036E-02 -5.9563E-02  4.8277E-02  1.1644E-01  2.4659E-01
  prteigrs : nnsclo,ikpt=   30   87 max resid (incl. the buffer)=  2.14170E-13
 Non-SCF case, kpt   88 (  0.40278  0.36111  0.73611), residuals and eigenvalues=
  3.82E-16  1.39E-16  7.02E-16  5.06E-16  5.33E-16
 -9.8530E-02 -5.6758E-02  4.7553E-02  1.1469E-01  2.5412E-01
 Non-SCF case, kpt   89 (  0.43056  0.34722  0.72222), residuals and eigenvalues=
  3.08E-16  1.96E-16  8.11E-17  1.15E-16  5.35E-15
 -1.0099E-01 -5.3819E-02  4.8827E-02  1.0789E-01  2.7106E-01
  prteigrs : nnsclo,ikpt=   30   89 max resid (incl. the buffer)=  5.35444E-15
 Non-SCF case, kpt   90 (  0.45833  0.33333  0.70833), residuals and eigenvalues=
  9.16E-16  3.23E-16  5.04E-16  2.79E-16  1.77E-11
 -1.0283E-01 -5.1506E-02  5.1585E-02  9.9726E-02  2.9439E-01
  prteigrs : nnsclo,ikpt=   30   90 max resid (incl. the buffer)=  1.76530E-11
 Non-SCF case, kpt   91 (  0.48611  0.31944  0.69444), residuals and eigenvalues=
  5.10E-16  3.60E-16  3.46E-16  2.89E-16  1.06E-07
 -1.0382E-01 -5.0263E-02  5.4161E-02  9.3965E-02  3.2152E-01
  prteigrs : nnsclo,ikpt=   30   91 max resid (incl. the buffer)=  1.06267E-07
 Non-SCF case, kpt   92 (  0.51389  0.30556  0.68056), residuals and eigenvalues=
  6.18E-16  1.57E-16  1.56E-16  1.72E-16  2.03E-08
 -1.0382E-01 -5.0263E-02  5.4161E-02  9.3965E-02  3.2152E-01
  prteigrs : nnsclo,ikpt=   30   92 max resid (incl. the buffer)=  2.02882E-08
 Non-SCF case, kpt   93 (  0.54167  0.29167  0.66667), residuals and eigenvalues=
  4.94E-16  1.70E-16  9.48E-16  1.43E-16  2.48E-13
 -1.0283E-01 -5.1506E-02  5.1585E-02  9.9726E-02  2.9439E-01
  prteigrs : nnsclo,ikpt=   30   93 max resid (incl. the buffer)=  2.48208E-13
 Non-SCF case, kpt   94 (  0.56944  0.27778  0.65278), residuals and eigenvalues=
  1.65E-16  2.63E-16  8.88E-16  7.08E-16  3.60E-15
 -1.0099E-01 -5.3819E-02  4.8827E-02  1.0789E-01  2.7106E-01
  prteigrs : nnsclo,ikpt=   30   94 max resid (incl. the buffer)=  3.59532E-15
 Non-SCF case, kpt   95 (  0.59722  0.26389  0.63889), residuals and eigenvalues=
  3.09E-16  4.86E-16  4.89E-16  1.31E-16  5.58E-16
 -9.8530E-02 -5.6758E-02  4.7553E-02  1.1469E-01  2.5412E-01
 Non-SCF case, kpt   96 (  0.62500  0.25000  0.62500), residuals and eigenvalues=
  1.44E-16  1.61E-16  1.87E-16  2.70E-16  4.85E-15
 -9.6036E-02 -5.9563E-02  4.8277E-02  1.1644E-01  2.4659E-01
  prteigrs : nnsclo,ikpt=   30   96 max resid (incl. the buffer)=  4.84598E-15
 Non-SCF case, kpt   97 (  0.60000  0.20000  0.60000), residuals and eigenvalues=
  8.54E-16  2.16E-16  1.98E-16  3.61E-16  2.22E-16
 -8.9274E-02 -6.7238E-02  5.6916E-02  1.1097E-01  2.4028E-01
 Non-SCF case, kpt   98 (  0.57500  0.15000  0.57500), residuals and eigenvalues=
  1.66E-16  2.08E-16  2.41E-16  4.70E-16  3.57E-14
 -8.4947E-02 -7.3222E-02  6.9308E-02  1.0662E-01  2.3528E-01
  prteigrs : nnsclo,ikpt=   30   98 max resid (incl. the buffer)=  3.56697E-14
 Non-SCF case, kpt   99 (  0.55000  0.10000  0.55000), residuals and eigenvalues=
  2.94E-16  3.32E-16  1.40E-16  4.68E-16  2.88E-09
 -8.2481E-02 -7.7527E-02  8.3424E-02  1.0350E-01  2.3170E-01
  prteigrs : nnsclo,ikpt=   30   99 max resid (incl. the buffer)=  2.88207E-09
 Non-SCF case, kpt  100 (  0.52500  0.05000  0.52500), residuals and eigenvalues=
  9.04E-16  6.91E-16  7.44E-16  9.04E-16  1.45E-09
 -8.1301E-02 -8.0100E-02  9.5758E-02  1.0159E-01  2.2951E-01
  prteigrs : nnsclo,ikpt=   30  100 max resid (incl. the buffer)=  1.45138E-09
 Non-SCF case, kpt  101 (  0.50000  0.00000  0.50000), residuals and eigenvalues=
  6.98E-16  2.09E-16  7.77E-16  5.50E-16  2.13E-16
 -8.0958E-02 -8.0958E-02  1.0095E-01  1.0095E-01  2.2878E-01

 Integrated electronic density in atomic spheres:
 ------------------------------------------------
 Atom  Sphere_radius  Integrated_density
    1        2.00000          1.74622511
    2        2.00000          1.74622511
================================================================================

 ----iterations are completed or convergence reached----

 Mean square residual over all n,k,spin=   4.2040E-07; max=  4.2416E-05
 reduced coordinates (array xred) for    2 atoms
       0.000000000000      0.000000000000      0.000000000000
       0.250000000000      0.250000000000      0.250000000000

 cartesian coordinates (angstrom) at end:
    1      0.00000000000000     0.00000000000000     0.00000000000000
    2      1.11629941451027     0.78934288583777     1.93348730238791
 length scales=  1.000000000000  1.000000000000  1.000000000000 bohr
              =  0.529177208590  0.529177208590  0.529177208590 angstroms
 prteigrs : about to open file /Users/gmatteo/git_repos/abitutorials/abitutorials/base3/flow_base3_ebands/w0/t1/outdata/out_EIG
 Eigenvalues (hartree) for nkpt= 101  k points:
 kpt#   1, nband=  5, wtk=  1.00000, kpt=  0.0000  0.0000  0.0000 (reduced coord)
  -0.23094    0.20460    0.20460    0.20460    0.29693
 kpt#   2, nband=  5, wtk=  1.00000, kpt=  0.0357  0.0000  0.0357 (reduced coord)
  -0.23012    0.19871    0.20122    0.20122    0.29523
 kpt#   3, nband=  5, wtk=  1.00000, kpt=  0.0714  0.0000  0.0714 (reduced coord)
  -0.22769    0.18389    0.19254    0.19254    0.28914
 kpt#   4, nband=  5, wtk=  1.00000, kpt=  0.1071  0.0000  0.1071 (reduced coord)
  -0.22366    0.16447    0.18125    0.18125    0.28076
 kpt#   5, nband=  5, wtk=  1.00000, kpt=  0.1429  0.0000  0.1429 (reduced coord)
  -0.21801    0.14296    0.16921    0.16921    0.27126
 kpt#   6, nband=  5, wtk=  1.00000, kpt=  0.1786  0.0000  0.1786 (reduced coord)
  -0.21080    0.12047    0.15731    0.15731    0.26149
 kpt#   7, nband=  5, wtk=  1.00000, kpt=  0.2143  0.0000  0.2143 (reduced coord)
  -0.20203    0.09750    0.14611    0.14611    0.25213
 kpt#   8, nband=  5, wtk=  1.00000, kpt=  0.2500  0.0000  0.2500 (reduced coord)
  -0.19174    0.07433    0.13588    0.13588    0.24366
 kpt#   9, nband=  5, wtk=  1.00000, kpt=  0.2857  0.0000  0.2857 (reduced coord)
  -0.17994    0.05112    0.12681    0.12681    0.23643
 kpt#  10, nband=  5, wtk=  1.00000, kpt=  0.3214  0.0000  0.3214 (reduced coord)
  -0.16671    0.02799    0.11901    0.11901    0.23054
 kpt#  11, nband=  5, wtk=  1.00000, kpt=  0.3571  0.0000  0.3571 (reduced coord)
  -0.15204    0.00514    0.11259    0.11259    0.22639
 kpt#  12, nband=  5, wtk=  1.00000, kpt=  0.3929  0.0000  0.3929 (reduced coord)
  -0.13605   -0.01733    0.10755    0.10755    0.22402
 kpt#  13, nband=  5, wtk=  1.00000, kpt=  0.4286  0.0000  0.4286 (reduced coord)
  -0.11883   -0.03928    0.10389    0.10389    0.22359
 kpt#  14, nband=  5, wtk=  1.00000, kpt=  0.4643  0.0000  0.4643 (reduced coord)
  -0.10043   -0.06053    0.10169    0.10169    0.22513
 kpt#  15, nband=  5, wtk=  1.00000, kpt=  0.5000  0.0000  0.5000 (reduced coord)
  -0.08096   -0.08096    0.10095    0.10095    0.22878
 kpt#  16, nband=  5, wtk=  1.00000, kpt=  0.5000  0.0357  0.5357 (reduced coord)
  -0.08069   -0.08069    0.09854    0.09854    0.23324
 kpt#  17, nband=  5, wtk=  1.00000, kpt=  0.5000  0.0714  0.5714 (reduced coord)
  -0.07993   -0.07993    0.09234    0.09234    0.24561
 kpt#  18, nband=  5, wtk=  1.00000, kpt=  0.5000  0.1071  0.6071 (reduced coord)
  -0.07881   -0.07881    0.08442    0.08442    0.26391
 kpt#  19, nband=  5, wtk=  1.00000, kpt=  0.5000  0.1429  0.6429 (reduced coord)
  -0.07751   -0.07751    0.07662    0.07662    0.28640
 kpt#  20, nband=  5, wtk=  1.00000, kpt=  0.5000  0.1786  0.6786 (reduced coord)
  -0.07630   -0.07630    0.07021    0.07021    0.31180
 kpt#  21, nband=  5, wtk=  1.00000, kpt=  0.5000  0.2143  0.7143 (reduced coord)
  -0.07543   -0.07543    0.06605    0.06605    0.33897
 kpt#  22, nband=  5, wtk=  1.00000, kpt=  0.5000  0.2500  0.7500 (reduced coord)
  -0.07513   -0.07513    0.06456    0.06456    0.35972
 kpt#  23, nband=  5, wtk=  1.00000, kpt=  0.4750  0.2750  0.7500 (reduced coord)
  -0.08261   -0.06813    0.05888    0.07312    0.33343
 kpt#  24, nband=  5, wtk=  1.00000, kpt=  0.4500  0.3000  0.7500 (reduced coord)
  -0.08846   -0.06366    0.05430    0.08536    0.30188
 kpt#  25, nband=  5, wtk=  1.00000, kpt=  0.4250  0.3250  0.7500 (reduced coord)
  -0.09266   -0.06114    0.05097    0.09931    0.27432
 kpt#  26, nband=  5, wtk=  1.00000, kpt=  0.4000  0.3500  0.7500 (reduced coord)
  -0.09519   -0.05992    0.04896    0.11138    0.25430
 kpt#  27, nband=  5, wtk=  1.00000, kpt=  0.3750  0.3750  0.7500 (reduced coord)
  -0.09604   -0.05956    0.04828    0.11644    0.24659
 kpt#  28, nband=  5, wtk=  1.00000, kpt=  0.3500  0.3500  0.7000 (reduced coord)
  -0.10537   -0.05020    0.04429    0.12296    0.25417
 kpt#  29, nband=  5, wtk=  1.00000, kpt=  0.3250  0.3250  0.6500 (reduced coord)
  -0.11690   -0.03917    0.04489    0.13039    0.26269
 kpt#  30, nband=  5, wtk=  1.00000, kpt=  0.3000  0.3000  0.6000 (reduced coord)
  -0.12986   -0.02653    0.04946    0.13854    0.27196
 kpt#  31, nband=  5, wtk=  1.00000, kpt=  0.2750  0.2750  0.5500 (reduced coord)
  -0.14342   -0.01222    0.05737    0.14721    0.28158
 kpt#  32, nband=  5, wtk=  1.00000, kpt=  0.2500  0.2500  0.5000 (reduced coord)
  -0.15694    0.00370    0.06798    0.15619    0.29107
 kpt#  33, nband=  5, wtk=  1.00000, kpt=  0.2250  0.2250  0.4500 (reduced coord)
  -0.16993    0.02118    0.08073    0.16513    0.29955
 kpt#  34, nband=  5, wtk=  1.00000, kpt=  0.2000  0.2000  0.4000 (reduced coord)
  -0.18207    0.04015    0.09524    0.17368    0.30603
 kpt#  35, nband=  5, wtk=  1.00000, kpt=  0.1750  0.1750  0.3500 (reduced coord)
  -0.19312    0.06055    0.11110    0.18149    0.30980
 kpt#  36, nband=  5, wtk=  1.00000, kpt=  0.1500  0.1500  0.3000 (reduced coord)
  -0.20291    0.08232    0.12792    0.18827    0.31082
 kpt#  37, nband=  5, wtk=  1.00000, kpt=  0.1250  0.1250  0.2500 (reduced coord)
  -0.21135    0.10523    0.14519    0.19379    0.30982
 kpt#  38, nband=  5, wtk=  1.00000, kpt=  0.1000  0.1000  0.2000 (reduced coord)
  -0.21834    0.12906    0.16224    0.19805    0.30883
 kpt#  39, nband=  5, wtk=  1.00000, kpt=  0.0750  0.0750  0.1500 (reduced coord)
  -0.22382    0.15327    0.17821    0.20111    0.30469
 kpt#  40, nband=  5, wtk=  1.00000, kpt=  0.0500  0.0500  0.1000 (reduced coord)
  -0.22776    0.17666    0.19177    0.20311    0.30067
 kpt#  41, nband=  5, wtk=  1.00000, kpt=  0.0250  0.0250  0.0500 (reduced coord)
  -0.23014    0.19614    0.20119    0.20425    0.29834
 kpt#  42, nband=  5, wtk=  1.00000, kpt=  0.0000  0.0000  0.0000 (reduced coord)
  -0.23094    0.20460    0.20460    0.20460    0.29693
 kpt#  43, nband=  5, wtk=  1.00000, kpt=  0.0417  0.0417  0.0417 (reduced coord)
  -0.23010    0.19482    0.20320    0.20320    0.29888
 kpt#  44, nband=  5, wtk=  1.00000, kpt=  0.0833  0.0833  0.0833 (reduced coord)
  -0.22763    0.17232    0.19935    0.19935    0.29548
 kpt#  45, nband=  5, wtk=  1.00000, kpt=  0.1250  0.1250  0.1250 (reduced coord)
  -0.22353    0.14514    0.19404    0.19404    0.29036
 kpt#  46, nband=  5, wtk=  1.00000, kpt=  0.1667  0.1667  0.1667 (reduced coord)
  -0.21784    0.11660    0.18814    0.18814    0.28425
 kpt#  47, nband=  5, wtk=  1.00000, kpt=  0.2083  0.2083  0.2083 (reduced coord)
  -0.21060    0.08817    0.18230    0.18230    0.27794
 kpt#  48, nband=  5, wtk=  1.00000, kpt=  0.2500  0.2500  0.2500 (reduced coord)
  -0.20195    0.06050    0.17684    0.17684    0.27193
 kpt#  49, nband=  5, wtk=  1.00000, kpt=  0.2917  0.2917  0.2917 (reduced coord)
  -0.19201    0.03412    0.17205    0.17205    0.26658
 kpt#  50, nband=  5, wtk=  1.00000, kpt=  0.3333  0.3333  0.3333 (reduced coord)
  -0.18107    0.00953    0.16805    0.16805    0.26206
 kpt#  51, nband=  5, wtk=  1.00000, kpt=  0.3750  0.3750  0.3750 (reduced coord)
  -0.16960   -0.01264    0.16491    0.16491    0.25860
 kpt#  52, nband=  5, wtk=  1.00000, kpt=  0.4167  0.4167  0.4167 (reduced coord)
  -0.15863   -0.03132    0.16264    0.16264    0.25600
 kpt#  53, nband=  5, wtk=  1.00000, kpt=  0.4583  0.4583  0.4583 (reduced coord)
  -0.15002   -0.04455    0.16129    0.16129    0.25447
 kpt#  54, nband=  5, wtk=  1.00000, kpt=  0.5000  0.5000  0.5000 (reduced coord)
  -0.14660   -0.04957    0.16079    0.16079    0.25388
 kpt#  55, nband=  5, wtk=  1.00000, kpt=  0.5139  0.4722  0.5139 (reduced coord)
  -0.14587   -0.04918    0.15391    0.15944    0.26026
 kpt#  56, nband=  5, wtk=  1.00000, kpt=  0.5278  0.4444  0.5278 (reduced coord)
  -0.14368   -0.04810    0.13751    0.15572    0.27341
 kpt#  57, nband=  5, wtk=  1.00000, kpt=  0.5417  0.4167  0.5417 (reduced coord)
  -0.14005   -0.04650    0.11753    0.15026    0.28149
 kpt#  58, nband=  5, wtk=  1.00000, kpt=  0.5556  0.3889  0.5556 (reduced coord)
  -0.13500   -0.04475    0.09713    0.14389    0.27923
 kpt#  59, nband=  5, wtk=  1.00000, kpt=  0.5694  0.3611  0.5694 (reduced coord)
  -0.12859   -0.04349    0.07824    0.13729    0.27225
 kpt#  60, nband=  5, wtk=  1.00000, kpt=  0.5833  0.3333  0.5833 (reduced coord)
  -0.12092   -0.04376    0.06256    0.13094    0.26448
 kpt#  61, nband=  5, wtk=  1.00000, kpt=  0.5972  0.3056  0.5972 (reduced coord)
  -0.11224   -0.04678    0.05184    0.12522    0.25731
 kpt#  62, nband=  5, wtk=  1.00000, kpt=  0.6111  0.2778  0.6111 (reduced coord)
  -0.10321   -0.05292    0.04717    0.12033    0.25123
 kpt#  63, nband=  5, wtk=  1.00000, kpt=  0.6250  0.2500  0.6250 (reduced coord)
  -0.09604   -0.05956    0.04828    0.11644    0.24659
 kpt#  64, nband=  5, wtk=  1.00000, kpt=  0.6000  0.2500  0.6500 (reduced coord)
  -0.09519   -0.05992    0.04896    0.11138    0.25430
 kpt#  65, nband=  5, wtk=  1.00000, kpt=  0.5750  0.2500  0.6750 (reduced coord)
  -0.09266   -0.06114    0.05097    0.09931    0.27432
 kpt#  66, nband=  5, wtk=  1.00000, kpt=  0.5500  0.2500  0.7000 (reduced coord)
  -0.08846   -0.06366    0.05430    0.08536    0.30188
 kpt#  67, nband=  5, wtk=  1.00000, kpt=  0.5250  0.2500  0.7250 (reduced coord)
  -0.08261   -0.06813    0.05888    0.07312    0.33343
 kpt#  68, nband=  5, wtk=  1.00000, kpt=  0.5000  0.2500  0.7500 (reduced coord)
  -0.07513   -0.07513    0.06456    0.06456    0.35972
 kpt#  69, nband=  5, wtk=  1.00000, kpt=  0.5000  0.2750  0.7250 (reduced coord)
  -0.08694   -0.06374    0.05734    0.07471    0.34858
 kpt#  70, nband=  5, wtk=  1.00000, kpt=  0.5000  0.3000  0.7000 (reduced coord)
  -0.09845   -0.05397    0.05418    0.08670    0.33758
 kpt#  71, nband=  5, wtk=  1.00000, kpt=  0.5000  0.3250  0.6750 (reduced coord)
  -0.10918   -0.04709    0.05648    0.09973    0.32860
 kpt#  72, nband=  5, wtk=  1.00000, kpt=  0.5000  0.3500  0.6500 (reduced coord)
  -0.11879   -0.04370    0.06484    0.11311    0.32268
 kpt#  73, nband=  5, wtk=  1.00000, kpt=  0.5000  0.3750  0.6250 (reduced coord)
  -0.12713   -0.04324    0.07855    0.12606    0.31253
 kpt#  74, nband=  5, wtk=  1.00000, kpt=  0.5000  0.4000  0.6000 (reduced coord)
  -0.13407   -0.04446    0.09620    0.13781    0.30172
 kpt#  75, nband=  5, wtk=  1.00000, kpt=  0.5000  0.4250  0.5750 (reduced coord)
  -0.13952   -0.04628    0.11610    0.14762    0.28969
 kpt#  76, nband=  5, wtk=  1.00000, kpt=  0.5000  0.4500  0.5500 (reduced coord)
  -0.14345   -0.04799    0.13631    0.15488    0.27528
 kpt#  77, nband=  5, wtk=  1.00000, kpt=  0.5000  0.4750  0.5250 (reduced coord)
  -0.14581   -0.04915    0.15342    0.15932    0.26075
 kpt#  78, nband=  5, wtk=  1.00000, kpt=  0.5000  0.5000  0.5000 (reduced coord)
  -0.14660   -0.04957    0.16079    0.16079    0.25388
 kpt#  79, nband=  5, wtk=  1.00000, kpt=  0.4861  0.4861  0.5278 (reduced coord)
  -0.14587   -0.04918    0.15391    0.15944    0.26026
 kpt#  80, nband=  5, wtk=  1.00000, kpt=  0.4722  0.4722  0.5556 (reduced coord)
  -0.14368   -0.04810    0.13751    0.15572    0.27341
 kpt#  81, nband=  5, wtk=  1.00000, kpt=  0.4583  0.4583  0.5833 (reduced coord)
  -0.14005   -0.04650    0.11753    0.15026    0.28149
 kpt#  82, nband=  5, wtk=  1.00000, kpt=  0.4444  0.4444  0.6111 (reduced coord)
  -0.13500   -0.04475    0.09713    0.14389    0.27923
 kpt#  83, nband=  5, wtk=  1.00000, kpt=  0.4306  0.4306  0.6389 (reduced coord)
  -0.12859   -0.04349    0.07824    0.13729    0.27225
 kpt#  84, nband=  5, wtk=  1.00000, kpt=  0.4167  0.4167  0.6667 (reduced coord)
  -0.12092   -0.04376    0.06256    0.13094    0.26448
 kpt#  85, nband=  5, wtk=  1.00000, kpt=  0.4028  0.4028  0.6944 (reduced coord)
  -0.11224   -0.04678    0.05184    0.12522    0.25731
 kpt#  86, nband=  5, wtk=  1.00000, kpt=  0.3889  0.3889  0.7222 (reduced coord)
  -0.10321   -0.05292    0.04717    0.12033    0.25123
 kpt#  87, nband=  5, wtk=  1.00000, kpt=  0.3750  0.3750  0.7500 (reduced coord)
  -0.09604   -0.05956    0.04828    0.11644    0.24659
 kpt#  88, nband=  5, wtk=  1.00000, kpt=  0.4028  0.3611  0.7361 (reduced coord)
  -0.09853   -0.05676    0.04755    0.11469    0.25412
 kpt#  89, nband=  5, wtk=  1.00000, kpt=  0.4306  0.3472  0.7222 (reduced coord)
  -0.10099   -0.05382    0.04883    0.10789    0.27106
 kpt#  90, nband=  5, wtk=  1.00000, kpt=  0.4583  0.3333  0.7083 (reduced coord)
  -0.10283   -0.05151    0.05159    0.09973    0.29439
 kpt#  91, nband=  5, wtk=  1.00000, kpt=  0.4861  0.3194  0.6944 (reduced coord)
  -0.10382   -0.05026    0.05416    0.09396    0.32152
 kpt#  92, nband=  5, wtk=  1.00000, kpt=  0.5139  0.3056  0.6806 (reduced coord)
  -0.10382   -0.05026    0.05416    0.09396    0.32152
 kpt#  93, nband=  5, wtk=  1.00000, kpt=  0.5417  0.2917  0.6667 (reduced coord)
  -0.10283   -0.05151    0.05159    0.09973    0.29439
 kpt#  94, nband=  5, wtk=  1.00000, kpt=  0.5694  0.2778  0.6528 (reduced coord)
  -0.10099   -0.05382    0.04883    0.10789    0.27106
 kpt#  95, nband=  5, wtk=  1.00000, kpt=  0.5972  0.2639  0.6389 (reduced coord)
  -0.09853   -0.05676    0.04755    0.11469    0.25412
 kpt#  96, nband=  5, wtk=  1.00000, kpt=  0.6250  0.2500  0.6250 (reduced coord)
  -0.09604   -0.05956    0.04828    0.11644    0.24659
 kpt#  97, nband=  5, wtk=  1.00000, kpt=  0.6000  0.2000  0.6000 (reduced coord)
  -0.08927   -0.06724    0.05692    0.11097    0.24028
 kpt#  98, nband=  5, wtk=  1.00000, kpt=  0.5750  0.1500  0.5750 (reduced coord)
  -0.08495   -0.07322    0.06931    0.10662    0.23528
 kpt#  99, nband=  5, wtk=  1.00000, kpt=  0.5500  0.1000  0.5500 (reduced coord)
  -0.08248   -0.07753    0.08342    0.10350    0.23170
 kpt# 100, nband=  5, wtk=  1.00000, kpt=  0.5250  0.0500  0.5250 (reduced coord)
  -0.08130   -0.08010    0.09576    0.10159    0.22951
 kpt# 101, nband=  5, wtk=  1.00000, kpt=  0.5000  0.0000  0.5000 (reduced coord)
  -0.08096   -0.08096    0.10095    0.10095    0.22878

== END DATASET(S) ==============================================================
================================================================================
  
 -outvars: echo values of variables after computation  --------
-          iomode           3
            acell      1.0000000000E+00  1.0000000000E+00  1.0000000000E+00 Bohr
              amu      2.80855000E+01
           diemac      1.20000000E+01
             ecut      8.00000000E+00 Hartree
-          fftalg         112
           irdden           1
             iscf          -2
           istwfk        2    0    0    0    0    0    0    0    0    0
                         0    0    0    0    5    0    0    0    0    0
                         0    0    0    0    0    0    0    0    0    0
                         0    0    0    0    0    0    0    0    0    0
                         0    2    0    0    0    0    0    0    0    0
                       outvar_i_n : Printing only first  50 k-points.
              kpt      0.00000000E+00  0.00000000E+00  0.00000000E+00
                       3.57142857E-02  0.00000000E+00  3.57142857E-02
                       7.14285714E-02  0.00000000E+00  7.14285714E-02
                       1.07142857E-01  0.00000000E+00  1.07142857E-01
                       1.42857143E-01  0.00000000E+00  1.42857143E-01
                       1.78571429E-01  0.00000000E+00  1.78571429E-01
                       2.14285714E-01  0.00000000E+00  2.14285714E-01
                       2.50000000E-01  0.00000000E+00  2.50000000E-01
                       2.85714286E-01  0.00000000E+00  2.85714286E-01
                       3.21428571E-01  0.00000000E+00  3.21428571E-01
                       3.57142857E-01  0.00000000E+00  3.57142857E-01
                       3.92857143E-01  0.00000000E+00  3.92857143E-01
                       4.28571429E-01  0.00000000E+00  4.28571429E-01
                       4.64285714E-01  0.00000000E+00  4.64285714E-01
                       5.00000000E-01  0.00000000E+00  5.00000000E-01
                       5.00000000E-01  3.57142857E-02  5.35714286E-01
                       5.00000000E-01  7.14285714E-02  5.71428571E-01
                       5.00000000E-01  1.07142857E-01  6.07142857E-01
                       5.00000000E-01  1.42857143E-01  6.42857143E-01
                       5.00000000E-01  1.78571429E-01  6.78571429E-01
                       5.00000000E-01  2.14285714E-01  7.14285714E-01
                       5.00000000E-01  2.50000000E-01  7.50000000E-01
                       4.75000000E-01  2.75000000E-01  7.50000000E-01
                       4.50000000E-01  3.00000000E-01  7.50000000E-01
                       4.25000000E-01  3.25000000E-01  7.50000000E-01
                       4.00000000E-01  3.50000000E-01  7.50000000E-01
                       3.75000000E-01  3.75000000E-01  7.50000000E-01
                       3.50000000E-01  3.50000000E-01  7.00000000E-01
                       3.25000000E-01  3.25000000E-01  6.50000000E-01
                       3.00000000E-01  3.00000000E-01  6.00000000E-01
                       2.75000000E-01  2.75000000E-01  5.50000000E-01
                       2.50000000E-01  2.50000000E-01  5.00000000E-01
                       2.25000000E-01  2.25000000E-01  4.50000000E-01
                       2.00000000E-01  2.00000000E-01  4.00000000E-01
                       1.75000000E-01  1.75000000E-01  3.50000000E-01
                       1.50000000E-01  1.50000000E-01  3.00000000E-01
                       1.25000000E-01  1.25000000E-01  2.50000000E-01
                       1.00000000E-01  1.00000000E-01  2.00000000E-01
                       7.50000000E-02  7.50000000E-02  1.50000000E-01
                       5.00000000E-02  5.00000000E-02  1.00000000E-01
                       2.50000000E-02  2.50000000E-02  5.00000000E-02
                       0.00000000E+00  0.00000000E+00  0.00000000E+00
                       4.16666667E-02  4.16666667E-02  4.16666667E-02
                       8.33333333E-02  8.33333333E-02  8.33333333E-02
                       1.25000000E-01  1.25000000E-01  1.25000000E-01
                       1.66666667E-01  1.66666667E-01  1.66666667E-01
                       2.08333333E-01  2.08333333E-01  2.08333333E-01
                       2.50000000E-01  2.50000000E-01  2.50000000E-01
                       2.91666667E-01  2.91666667E-01  2.91666667E-01
                       3.33333333E-01  3.33333333E-01  3.33333333E-01
                       outvar_i_n : Printing only first  50 k-points.
           kptopt         -11
P           mkmem          51
            natom           2
            nband           5
           nbdbuf           2
           ndivsm           5
            ngfft          20      20      20
             nkpt         101
             nsym          48
           ntypat           1
            rprim      6.3285005272E+00  0.0000000000E+00  3.6537614829E+00
                       2.1095001757E+00  5.9665675167E+00  3.6537614829E+00
                       0.0000000000E+00  0.0000000000E+00  7.3075229659E+00
           shiftk      5.00000000E-01  5.00000000E-01  5.00000000E-01
          spgroup         227
           symrel      1  0  0   0  1  0   0  0  1      -1  0  0   0 -1  0   0  0 -1
                       0 -1  1   0 -1  0   1 -1  0       0  1 -1   0  1  0  -1  1  0
                      -1  0  0  -1  0  1  -1  1  0       1  0  0   1  0 -1   1 -1  0
                       0  1 -1   1  0 -1   0  0 -1       0 -1  1  -1  0  1   0  0  1
                      -1  0  0  -1  1  0  -1  0  1       1  0  0   1 -1  0   1  0 -1
                       0 -1  1   1 -1  0   0 -1  0       0  1 -1  -1  1  0   0  1  0
                       1  0  0   0  0  1   0  1  0      -1  0  0   0  0 -1   0 -1  0
                       0  1 -1   0  0 -1   1  0 -1       0 -1  1   0  0  1  -1  0  1
                      -1  0  1  -1  1  0  -1  0  0       1  0 -1   1 -1  0   1  0  0
                       0 -1  0   1 -1  0   0 -1  1       0  1  0  -1  1  0   0  1 -1
                       1  0 -1   0  0 -1   0  1 -1      -1  0  1   0  0  1   0 -1  1
                       0  1  0   0  0  1   1  0  0       0 -1  0   0  0 -1  -1  0  0
                       1  0 -1   0  1 -1   0  0 -1      -1  0  1   0 -1  1   0  0  1
                       0 -1  0   0 -1  1   1 -1  0       0  1  0   0  1 -1  -1  1  0
                      -1  0  1  -1  0  0  -1  1  0       1  0 -1   1  0  0   1 -1  0
                       0  1  0   1  0  0   0  0  1       0 -1  0  -1  0  0   0  0 -1
                       0  0 -1   0  1 -1   1  0 -1       0  0  1   0 -1  1  -1  0  1
                       1 -1  0   0 -1  1   0 -1  0      -1  1  0   0  1 -1   0  1  0
                       0  0  1   1  0  0   0  1  0       0  0 -1  -1  0  0   0 -1  0
                      -1  1  0  -1  0  0  -1  0  1       1 -1  0   1  0  0   1  0 -1
                       0  0  1   0  1  0   1  0  0       0  0 -1   0 -1  0  -1  0  0
                       1 -1  0   0 -1  0   0 -1  1      -1  1  0   0  1  0   0  1 -1
                       0  0 -1   1  0 -1   0  1 -1       0  0  1  -1  0  1   0 -1  1
                      -1  1  0  -1  0  1  -1  0  0       1 -1  0   1  0 -1   1  0  0
            tnons      0.0000000  0.0000000  0.0000000     0.2500000  0.2500000  0.2500000
                       0.0000000  0.0000000  0.0000000     0.2500000  0.2500000  0.2500000
                       0.0000000  0.0000000  0.0000000     0.2500000  0.2500000  0.2500000
                       0.0000000  0.0000000  0.0000000     0.2500000  0.2500000  0.2500000
                       0.0000000  0.0000000  0.0000000     0.2500000  0.2500000  0.2500000
                       0.0000000  0.0000000  0.0000000     0.2500000  0.2500000  0.2500000
                       0.0000000  0.0000000  0.0000000     0.2500000  0.2500000  0.2500000
                       0.0000000  0.0000000  0.0000000     0.2500000  0.2500000  0.2500000
                       0.0000000  0.0000000  0.0000000     0.2500000  0.2500000  0.2500000
                       0.0000000  0.0000000  0.0000000     0.2500000  0.2500000  0.2500000
                       0.0000000  0.0000000  0.0000000     0.2500000  0.2500000  0.2500000
                       0.0000000  0.0000000  0.0000000     0.2500000  0.2500000  0.2500000
                       0.0000000  0.0000000  0.0000000     0.2500000  0.2500000  0.2500000
                       0.0000000  0.0000000  0.0000000     0.2500000  0.2500000  0.2500000
                       0.0000000  0.0000000  0.0000000     0.2500000  0.2500000  0.2500000
                       0.0000000  0.0000000  0.0000000     0.2500000  0.2500000  0.2500000
                       0.0000000  0.0000000  0.0000000     0.2500000  0.2500000  0.2500000
                       0.0000000  0.0000000  0.0000000     0.2500000  0.2500000  0.2500000
                       0.0000000  0.0000000  0.0000000     0.2500000  0.2500000  0.2500000
                       0.0000000  0.0000000  0.0000000     0.2500000  0.2500000  0.2500000
                       0.0000000  0.0000000  0.0000000     0.2500000  0.2500000  0.2500000
                       0.0000000  0.0000000  0.0000000     0.2500000  0.2500000  0.2500000
                       0.0000000  0.0000000  0.0000000     0.2500000  0.2500000  0.2500000
                       0.0000000  0.0000000  0.0000000     0.2500000  0.2500000  0.2500000
           tolwfr      1.00000000E-15
            typat      1  1
                       outvars : Printing only first  50 k-points.
           xangst      0.0000000000E+00  0.0000000000E+00  0.0000000000E+00
                       1.1162994145E+00  7.8934288584E-01  1.9334873024E+00
            xcart      0.0000000000E+00  0.0000000000E+00  0.0000000000E+00
                       2.1095001757E+00  1.4916418792E+00  3.6537614829E+00
             xred      0.0000000000E+00  0.0000000000E+00  0.0000000000E+00
                       2.5000000000E-01  2.5000000000E-01  2.5000000000E-01
            znucl       14.00000

================================================================================


- Timing analysis has been suppressed with timopt=0



================================================================================

 Suggested references for the acknowledgment of ABINIT usage.

 The users of ABINIT have little formal obligations with respect to the ABINIT group
 (those specified in the GNU General Public License, http://www.gnu.org/copyleft/gpl.txt).
 However, it is common practice in the scientific literature,
 to acknowledge the efforts of people that have made the research possible.
 In this spirit, please find below suggested citations of work written by ABINIT developers,
 corresponding to implementations inside of ABINIT that you have used in the present run.
 Note also that it will be of great value to readers of publications presenting these results,
 to read papers enabling them to understand the theoretical formalism and details
 of the ABINIT implementation.
 For information on why they are suggested, see also http://www.abinit.org/about/?text=acknowledgments.
-
- [1] Sharing electronic structure and crystallographic data with ETSF_IO
- D. Caliste, Y. Pouillon, M.J. Verstraete, V. Olevano, X. Gonze,
- Comput. Physics Communications 179, 748 (2008).
- Comment : to be cited in case the ETSF_IO file format is used, i.e. iomode=3.
-
- [2] Recent developments in the ABINIT software package.
- Computer Phys. Comm. 205, 106 (2016).
- X.Gonze, F.Jollet, F.Abreu Araujo, D.Adams, B.Amadon, T.Applencourt,
- C.Audouze, J.-M.Beuken, J.Bieder, A.Bokhanchuk, E.Bousquet, F.Bruneval
- D.Caliste, M.Cote, F.Dahm, F.Da Pieve, M.Delaveau, M.Di Gennaro,
- B.Dorado, C.Espejo, G.Geneste, L.Genovese, A.Gerossier, M.Giantomassi,
- Y.Gillet, D.R.Hamann, L.He, G.Jomard, J.Laflamme Janssen, S.Le Roux,
- A.Levitt, A.Lherbier, F.Liu, I.Lukacevic, A.Martin, C.Martins,
- M.J.T.Oliveira, S.Ponce, Y.Pouillon, T.Rangel, G.-M.Rignanese,
- A.H.Romero, B.Rousseau, O.Rubel, A.A.Shukri, M.Stankovski, M.Torrent,
- M.J.Van Setten, B.Van Troeye, M.J.Verstraete, D.Waroquier, J.Wiktor,
- B.Xue, A.Zhou, J.W.Zwanziger.
- Comment : the fourth generic paper describing the ABINIT project.
- Note that a version of this paper, that is not formatted for Computer Phys. Comm. 
- is available at http://www.abinit.org/about/ABINIT16.pdf .
- The licence allows the authors to put it on the Web.
-
- [3] ABINIT : First-principles approach of materials and nanosystem properties.
- Computer Phys. Comm. 180, 2582-2615 (2009).
- X. Gonze, B. Amadon, P.-M. Anglade, J.-M. Beuken, F. Bottin, P. Boulanger, F. Bruneval,
- D. Caliste, R. Caracas, M. Cote, T. Deutsch, L. Genovese, Ph. Ghosez, M. Giantomassi
- S. Goedecker, D.R. Hamann, P. Hermet, F. Jollet, G. Jomard, S. Leroux, M. Mancini, S. Mazevet,
- M.J.T. Oliveira, G. Onida, Y. Pouillon, T. Rangel, G.-M. Rignanese, D. Sangalli, R. Shaltaf,
- M. Torrent, M.J. Verstraete, G. Zerah, J.W. Zwanziger
- Comment : the third generic paper describing the ABINIT project.
- Note that a version of this paper, that is not formatted for Computer Phys. Comm. 
- is available at http://www.abinit.org/about/ABINIT_CPC_v10.pdf .
- The licence allows the authors to put it on the Web.
-
- [4] A brief introduction to the ABINIT software package.
- Z. Kristallogr. 220, 558-562 (2005).
- X. Gonze, G.-M. Rignanese, M. Verstraete, J.-M. Beuken, Y. Pouillon, R. Caracas, F. Jollet,
- M. Torrent, G. Zerah, M. Mikami, Ph. Ghosez, M. Veithen, J.-Y. Raty, V. Olevano, F. Bruneval,
- L. Reining, R. Godby, G. Onida, D.R. Hamann, and D.C. Allan.
- Comment : the second generic paper describing the ABINIT project. Note that this paper
- should be cited especially if you are using the GW part of ABINIT, as several authors
- of this part are not in the list of authors of the first or third paper.
- The .pdf of the latter paper is available at http://www.abinit.org/about/zfk_0505-06_558-562.pdf.
- Note that it should not redistributed (Copyright by Oldenburg Wissenshaftverlag,
- the licence allows the authors to put it on the Web).
-
- And optionally:
-
- [5] First-principles computation of material properties : the ABINIT software project. 
- X. Gonze, J.-M. Beuken, R. Caracas, F. Detraux, M. Fuchs, G.-M. Rignanese, L. Sindic,
- M. Verstraete, G. Zerah, F. Jollet, M. Torrent, A. Roy, M. Mikami, Ph. Ghosez, J.-Y. Raty, D.C. Allan.
- Computational Materials Science 25, 478-492 (2002). http://dx.doi.org/10.1016/S0927-0256(02)00325-7
- Comment : the original paper describing the ABINIT project.
-
- Proc.   0 individual time (sec): cpu=          3.2  wall=          3.5

================================================================================

 Calculation completed.
.Delivered   0 WARNINGs and   0 COMMENTs to log file.
+Overall time at end (sec) : cpu=          6.4  wall=          7.0
